file 277298065 1403967520                                       
version 2
run nodebug-0-20140628-17:37:14-3638
attr configname nodebug
attr datetime 20140628-17:37:14
attr experiment nodebug
attr inifile omnetpp.ini
attr iterationvars ""
attr iterationvars2 $repetition=0
attr measurement ""
attr network Floatingscenario
attr processid 3638
attr repetition 0
attr replication #0
attr resultdir results
attr runnumber 0
attr seedset 0
vector 901  Floatingscenario.node[0].mobility  posx  ETV
901	563234 50583 2 72418 0.1 168.8 1688 2809.1624064472 3941.1266026287 6097463.3317675 22121390632.991
901	22940250 23192 72419 365217 168.9 240.2 714 2313.3677231597 2806.4242968134 1697379.7830059 4047007505.0209
901	46759795 18487 365218 1034409 240.3 296.5 563 2313.3431425754 2313.3677231597 1302421.0136997 3012967134.9393
901	70567706 16054 1034410 2344541 296.6 344.1 476 2038.3800358447 2313.3431425754 1042627.5025259 2290580335.3229
901	95210464 14423 2344542 3331412 344.2 386.8 427 2038.3798791615 2038.3800208712 870388.20985613 1774181816.9943
901	119646963 13135 3331413 4036819 386.9 425.7 389 1935.8945361826 2038.3798791615 789275.84422139 1601622280.5398
901	143960280 12067 4036820 4651600 425.8 461.5 358 1716.1040399473 1933.9249691099 655059.65975876 1199841068.6324
901	168165890 11218 4651601 5530931 461.6 494.8 333 1342.9358615725 1715.002041354 509409.00050641 783278776.09237
901	192718009 10755 5530932 6191468 494.9 526.7 319 1053.7948285446 1342.3517267227 393654.64139322 488112052.89709
901	216885940 1010 6191469 6251396 526.8 529.7 30 1012.884506986 1052.4328398309 30979.548538171 31995262.239419
vector 902  Floatingscenario.node[0].mobility  posy  ETV
902	613817 50656 2 72418 0.1 168.8 1688 417.87650219912 789.65749844242 960123.74743772 564260523.25946
902	22963442 23186 72419 365217 168.9 240.2 714 532.68819124175 614.46750622651 431136.5467472 260662067.36189
902	46778282 18487 365218 1034409 240.3 296.5 563 614.46750622651 614.47155006395 345946.03094836 212573101.82971
902	70583760 16043 1034410 2344541 296.6 344.1 476 611.21990933796 658.62094488665 301544.32967576 191211455.9014
902	95224887 14421 2344542 3331412 344.2 386.8 427 658.62094738629 658.62097104289 281231.15439256 185224735.83366
902	119660098 13134 3331413 4036819 386.9 425.7 389 658.62097104289 675.45227034782 256806.28546154 169541110.22831
902	143972347 12052 4036820 4651600 425.8 461.5 358 675.77435566722 821.12038588289 277937.6226345 216489065.25751
902	168177108 11214 4651601 5530931 461.6 494.8 333 821.29914566359 879.11534158692 283147.43590977 240850914.33868
902	192728764 10746 5530932 6191468 494.9 526.7 319 786.4832293367 880.59927183335 260664.89026217 213256956.20683
902	216884930 1010 6191469 6251396 526.8 529.7 30 826.23311133461 832.82742574741 24885.943349235 20643788.796908
vector 711  Floatingscenario.manager.anchorZone[237]  copies  ETV
711	558120 41 2 45939 0.1 151.505064102124 2 1 2 3 5
711	22936296 19 365214 365214 240.1 240.1 1 1 1 1 1
711	46757125 19 523856 523856 260.1 260.1 1 0 0 0 0
vector 712  Floatingscenario.manager.anchorZone[237]  infect  ETV
712	558161 41 2 45939 0.1 151.505064102124 2 1 2 3 5
vector 714  Floatingscenario.manager.anchorZone[238]  copies  ETV
714	558202 41 2 45939 0.1 151.505064102124 2 1 2 3 5
714	22936334 19 365214 365214 240.1 240.1 1 1 1 1 1
714	46757163 19 523856 523856 260.1 260.1 1 0 0 0 0
vector 715  Floatingscenario.manager.anchorZone[238]  infect  ETV
715	558243 41 2 45939 0.1 151.505064102124 2 1 2 3 5
vector 717  Floatingscenario.manager.anchorZone[239]  copies  ETV
717	558284 30 2 19292 0.1 120.1 2 0 1 1 1
vector 718  Floatingscenario.manager.anchorZone[239]  infect  ETV
718	558314 12 2 2 0.1 0.1 1 1 1 1 1
vector 747  Floatingscenario.manager.anchorZone[249]  copies  ETV
747	559452 12 2 2 0.1 0.1 1 1 1 1 1
747	22937231 19 365214 365214 240.1 240.1 1 0 0 0 0
vector 748  Floatingscenario.manager.anchorZone[249]  infect  ETV
748	559464 12 2 2 0.1 0.1 1 1 1 1 1
vector 750  Floatingscenario.manager.anchorZone[250]  copies  ETV
750	559476 12 2 2 0.1 0.1 1 1 1 1 1
750	22937269 19 365214 365214 240.1 240.1 1 0 0 0 0
vector 751  Floatingscenario.manager.anchorZone[250]  infect  ETV
751	559488 12 2 2 0.1 0.1 1 1 1 1 1
vector 753  Floatingscenario.manager.anchorZone[251]  copies  ETV
753	559500 41 2 45939 0.1 151.505064102124 2 1 2 3 5
753	22937307 19 365214 365214 240.1 240.1 1 1 1 1 1
753	46758002 19 523856 523856 260.1 260.1 1 0 0 0 0
vector 754  Floatingscenario.manager.anchorZone[251]  infect  ETV
754	559541 41 2 45939 0.1 151.505064102124 2 1 2 3 5
vector 756  Floatingscenario.manager.anchorZone[252]  copies  ETV
756	559582 30 2 19292 0.1 120.1 2 0 1 1 1
vector 757  Floatingscenario.manager.anchorZone[252]  infect  ETV
757	559612 12 2 2 0.1 0.1 1 1 1 1 1
vector 759  Floatingscenario.manager.anchorZone[253]  copies  ETV
759	559642 30 2 19292 0.1 120.1 2 0 1 1 1
vector 760  Floatingscenario.manager.anchorZone[253]  infect  ETV
760	559672 12 2 2 0.1 0.1 1 1 1 1 1
vector 786  Floatingscenario.manager.anchorZone[262]  copies  ETV
786	560692 12 2 2 0.1 0.1 1 1 1 1 1
786	22938234 19 365214 365214 240.1 240.1 1 0 0 0 0
vector 787  Floatingscenario.manager.anchorZone[262]  infect  ETV
787	560704 12 2 2 0.1 0.1 1 1 1 1 1
vector 789  Floatingscenario.manager.anchorZone[263]  copies  ETV
789	560716 12 2 2 0.1 0.1 1 1 1 1 1
789	22938272 19 365214 365214 240.1 240.1 1 0 0 0 0
vector 790  Floatingscenario.manager.anchorZone[263]  infect  ETV
790	560728 12 2 2 0.1 0.1 1 1 1 1 1
vector 792  Floatingscenario.manager.anchorZone[264]  copies  ETV
792	560740 30 2 19292 0.1 120.1 2 0 1 1 1
vector 793  Floatingscenario.manager.anchorZone[264]  infect  ETV
793	560770 12 2 2 0.1 0.1 1 1 1 1 1
vector 795  Floatingscenario.manager.anchorZone[265]  copies  ETV
795	560800 30 2 19292 0.1 120.1 2 0 1 1 1
vector 796  Floatingscenario.manager.anchorZone[265]  infect  ETV
796	560830 12 2 2 0.1 0.1 1 1 1 1 1
vector 798  Floatingscenario.manager.anchorZone[266]  copies  ETV
798	560860 30 2 19292 0.1 120.1 2 0 1 1 1
vector 799  Floatingscenario.manager.anchorZone[266]  infect  ETV
799	560890 12 2 2 0.1 0.1 1 1 1 1 1
vector 825  Floatingscenario.manager.anchorZone[275]  copies  ETV
825	561738 30 2 19292 0.1 120.1 2 0 1 1 1
vector 826  Floatingscenario.manager.anchorZone[275]  infect  ETV
826	561768 12 2 2 0.1 0.1 1 1 1 1 1
vector 828  Floatingscenario.manager.anchorZone[276]  copies  ETV
828	561798 30 2 19292 0.1 120.1 2 0 1 1 1
vector 829  Floatingscenario.manager.anchorZone[276]  infect  ETV
829	561828 12 2 2 0.1 0.1 1 1 1 1 1
vector 831  Floatingscenario.manager.anchorZone[277]  copies  ETV
831	561858 30 2 19292 0.1 120.1 2 0 1 1 1
vector 832  Floatingscenario.manager.anchorZone[277]  infect  ETV
832	561888 12 2 2 0.1 0.1 1 1 1 1 1
vector 834  Floatingscenario.manager.anchorZone[278]  copies  ETV
834	561918 30 2 19292 0.1 120.1 2 0 1 1 1
vector 835  Floatingscenario.manager.anchorZone[278]  infect  ETV
835	561948 12 2 2 0.1 0.1 1 1 1 1 1
vector 837  Floatingscenario.manager.anchorZone[279]  copies  ETV
837	561978 30 2 19292 0.1 120.1 2 0 1 1 1
vector 838  Floatingscenario.manager.anchorZone[279]  infect  ETV
838	562008 12 2 2 0.1 0.1 1 1 1 1 1
vector 867  Floatingscenario.manager.anchorZone[289]  copies  ETV
867	562558 30 2 19292 0.1 120.1 2 0 1 1 1
vector 868  Floatingscenario.manager.anchorZone[289]  infect  ETV
868	562588 12 2 2 0.1 0.1 1 1 1 1 1
vector 870  Floatingscenario.manager.anchorZone[290]  copies  ETV
870	562618 30 2 19292 0.1 120.1 2 0 1 1 1
vector 871  Floatingscenario.manager.anchorZone[290]  infect  ETV
871	562648 12 2 2 0.1 0.1 1 1 1 1 1
vector 903  Floatingscenario.node[0].mobility  speed  ETV
903	664473 53184 3 72418 0.2 168.8 1687 6.0294455703256e-14 27.779896241473 13128.966851397 242022.53693949
903	22986628 24964 72419 365217 168.9 240.2 714 1.1255579919535e-13 27.778023842725 4997.8100384698 127133.07423234
903	46796769 17025 365218 1034409 240.3 296.5 563 0 0.24910993126651 0.24910993130784 0.062055757855605
903	70599803 14251 1034410 2344541 296.6 344.1 476 0 25.383594268207 2784.9845793181 45150.309244299
903	95239308 16090 2344542 3331412 344.2 386.8 427 5.8550110178443e-14 0.00013911558352413 0.0014367492614418 1.0564954219541e-07
903	119673232 14227 3331413 4036819 386.9 425.7 389 5.853755740762e-14 19.958402672887 1058.5197447947 14036.709442798
903	143984399 12080 4036820 4651600 425.8 461.5 358 1.5828858445923 20.495003441074 3402.5624968565 39107.165292841
903	168188322 11221 4651601 5530931 461.6 494.8 333 3.4291574111794 11.179428253709 3548.3812045467 38623.743609777
903	192739510 10745 5530932 6191468 494.9 526.7 319 3.4576754231704 16.763265471553 3665.2196391645 45985.515080949
903	216883920 1010 6191469 6251396 526.8 529.7 30 13.76343399446 13.877415461601 414.73153715281 5733.4494503197
vector 904  Floatingscenario.node[0].mobility  acceleration  ETV
904	717657 53802 4 72418 0.3 168.8 1686 -4.5 2.6 144.46015531754 3608.4353796026
904	23011592 25580 72419 365217 168.9 240.2 714 -4.5 1.0916148324497 -277.67899381644 943.42921189742
904	46813794 17211 365218 1034409 240.3 296.5 563 -2.4910993126651 2.491099312664 -1.140421090895e-12 12.411151571116
904	70614054 14460 1034410 2344541 296.6 344.1 476 -4.2246571865093 2.5988149182617 0.0015181195727816 1351.9148594909
904	95255398 16400 2344542 3331412 344.2 386.8 427 -0.00016024951314241 2.829922102708e-14 -0.001518119571788 1.1909710634991e-07
904	119687459 14362 3331413 4036819 386.9 425.7 389 -2.8954550846299e-14 2.5930949642789 199.58402672887 384.01565100128
904	143996479 12133 4036820 4651600 425.8 461.5 358 -4.5 2.6 -87.948869890325 1417.2063033394
904	168199543 11666 4651601 5530931 461.6 494.8 333 -4.2679292727238 2.6 -64.343582726755 337.79475196822
904	192750255 10769 5530932 6191468 494.9 526.7 319 -4.5 2.6 90.791391726394 1055.3771823049
904	216882863 1057 6191469 6251396 526.8 529.7 30 -1.0668634109665 1.1178312264616 -0.30969845610676 9.4956733750576
vector 905  Floatingscenario.node[0].mobility  co2emission  ETV
905	771459 45322 4 72418 0.3 168.8 1686 -0.78632570844337 19.689454205709 4918.6408151901 32032.385686046
905	23037172 19580 72419 365217 168.9 240.2 714 -0.68580728078642 11.737884074297 1284.9287300084 5325.3993147658
905	46831005 12509 365218 1034409 240.3 296.5 563 0.973 1.2715728675741 597.14357286758 635.84141355755
905	70628514 13353 1034410 2344541 296.6 344.1 476 0.973 18.04836173843 1421.5199827112 11675.866328125
905	95271798 11728 2344542 3331412 344.2 386.8 427 1.11 1.1100067066791 473.97006928245 526.10685380728
905	119701821 10120 3331413 4036819 386.9 425.7 389 1.11 15.127183517418 986.87419066397 5820.7607830935
905	144008612 10336 4036820 4651600 425.8 461.5 358 0.96964378405561 14.983564946586 1003.6426382234 5257.6092261665
905	168211209 9957 4651601 5530931 461.6 494.8 333 0.973 5.0922098610583 647.03312942787 1645.2042179057
905	192761024 9775 5530932 6191468 494.9 526.7 319 0.973 12.006004023447 1151.3964853718 6344.8964025066
905	216881963 900 6191469 6251396 526.8 529.7 30 0.973 5.7648722702811 69.501457935914 228.87740217013
vector 910  Floatingscenario.node[1].mobility  posx  ETV
910	816781 50039 12 72418 1.1 168.8 1678 2450.5898168295 3482.931566886 4727248.307257 13603988660.982
910	23057008 22806 72419 365217 168.9 240.2 714 3482.931566886 3505.0337081546 2490505.1683378 8687165805.3378
910	46843514 18446 365218 1034409 240.3 296.5 563 3491.3230965835 3718.0836411521 1977972.1921088 6950526909.6843
910	70641867 16055 1034410 2344541 296.6 344.1 476 3720.8237569704 3907.5029553893 1851551.3074259 7202958438.2152
vector 911  Floatingscenario.node[1].mobility  posy  ETV
911	866820 50372 12 72418 1.1 168.8 1678 560.02272236609 1457.236935307 1476222.6108366 1514404203.1798
911	23079814 22810 72419 365217 168.9 240.2 714 1457.236935307 1479.7597561678 1046646.4394724 1534348090.0004
911	46861960 18456 365218 1034409 240.3 296.5 563 1450.0170808343 1486.2650523605 832260.80056332 1230321109.6237
911	70657922 16060 1034410 2344541 296.6 344.1 476 1419.5852873592 1449.5800486337 677525.30817845 964387364.55863
911	95042970 13265 2344542 3233392 344.2 383.4 393 1387.8793059952 1421.1555749278 556870.34022729 789096588.1321
vector 396  Floatingscenario.manager.anchorZone[132]  copies  ETV
396	538412 31 12 26822 1.1 121.1 2 0 1 1 1
vector 397  Floatingscenario.manager.anchorZone[132]  infect  ETV
397	538443 13 12 12 1.1 1.1 1 1 1 1 1
vector 399  Floatingscenario.manager.anchorZone[133]  copies  ETV
399	538474 31 12 26822 1.1 121.1 2 0 1 1 1
vector 400  Floatingscenario.manager.anchorZone[133]  infect  ETV
400	538505 13 12 12 1.1 1.1 1 1 1 1 1
vector 432  Floatingscenario.manager.anchorZone[144]  copies  ETV
432	542035 31 12 26822 1.1 121.1 2 0 1 1 1
vector 433  Floatingscenario.manager.anchorZone[144]  infect  ETV
433	542066 13 12 12 1.1 1.1 1 1 1 1 1
vector 435  Floatingscenario.manager.anchorZone[145]  copies  ETV
435	542097 31 12 26822 1.1 121.1 2 0 1 1 1
vector 436  Floatingscenario.manager.anchorZone[145]  infect  ETV
436	542128 13 12 12 1.1 1.1 1 1 1 1 1
vector 438  Floatingscenario.manager.anchorZone[146]  copies  ETV
438	542159 31 12 26822 1.1 121.1 2 0 1 1 1
vector 439  Floatingscenario.manager.anchorZone[146]  infect  ETV
439	542190 13 12 12 1.1 1.1 1 1 1 1 1
vector 441  Floatingscenario.manager.anchorZone[147]  copies  ETV
441	542221 31 12 26822 1.1 121.1 2 0 1 1 1
vector 442  Floatingscenario.manager.anchorZone[147]  infect  ETV
442	542252 13 12 12 1.1 1.1 1 1 1 1 1
vector 471  Floatingscenario.manager.anchorZone[157]  copies  ETV
471	544093 165 12 45953 1.1 152.1 7 1 4 18 52
471	22926978 135 72432 176135 170.1 211.134397229673 5 2 6 20 90
471	46742938 252 465240 942059 256.813682091041 291.1 9 7 13 93 993
471	70544916 307 1089504 2326990 298.434356239069 343.533822007376 11 11 14 135 1665
471	95193016 189 2417378 3233386 346.018152582692 383.1 8 10 15 98 1220
471	119624059 258 3334934 3807078 387.64549886065 413.1 11 5 11 98 918
471	143944714 100 4071142 4639668 429.1 461.1 5 0 4 10 30
vector 472  Floatingscenario.manager.anchorZone[157]  infect  ETV
472	544258 129 12 34942 1.1 129.720007342889 5 1 5 15 55
472	22927113 117 80487 176135 177.932579232712 211.134397229673 4 6 9 30 230
472	46743190 215 465240 791853 256.813682091041 280.612499961421 7 10 16 91 1211
472	70545223 223 1089504 2326990 298.434356239069 343.533822007376 7 17 23 140 2828
472	95193205 63 2417378 3215376 346.018152582692 381.14601546742 2 24 25 49 1201
472	119624317 95 3334934 3516451 387.64549886065 398.939892790866 3 26 28 81 2189
vector 474  Floatingscenario.manager.anchorZone[158]  copies  ETV
474	544423 322 12 47584 1.1 156.921926036171 12 1 10 60 398
474	22927248 245 80074 321361 177.931586940948 233.333350175562 8 11 18 116 1724
474	46743443 492 366195 1020982 242.724893247108 294.949257240247 17 19 29 427 10885
474	70545526 933 1071579 2344540 298.428301778817 344.1 34 30 37 1141 38369
474	95193394 505 2406067 3267156 346.011628630243 384.1 20 31 37 692 23990
474	119624580 716 3331416 4036810 387.1 425.1 30 17 31 741 19127
474	143944919 432 4058783 4639668 427.149251613287 461.1 18 9 18 251 3649
474	168143639 691 4661511 5519622 461.742602887688 494.245215297863 24 10 19 360 5564
474	192703983 445 5556661 6124819 498.626969323546 524.1 17 16 20 304 5456
474	217255098 487 6251388 7109414 529.1 556.831256852105 19 14 21 334 5958
474	241576092 414 7185959 7746292 559.452542540434 585.1 15 16 20 269 4851
474	277292538 201 7774882 8107137 587.1 599.020195705174 7 17 21 134 2576
vector 475  Floatingscenario.manager.anchorZone[158]  infect  ETV
475	544745 305 12 47584 1.1 156.921926036171 11 1 11 66 506
475	22927493 245 80074 321361 177.931586940948 233.333350175562 8 12 19 124 1964
475	46743935 432 366195 1020982 242.724893247108 294.949257240247 14 20 33 371 10059
475	70546459 639 1071579 2324635 298.428301778817 343.532410727837 20 34 53 870 38510
475	95193899 253 2406067 3215376 346.011628630243 381.14601546742 8 54 61 460 26492
475	119625296 254 3334934 4014226 387.64549886065 423.524493508464 8 62 69 524 34364
475	143945351 160 4058783 4629273 427.149251613287 459.726217280795 5 70 74 360 25930
475	168144330 544 4661511 5519622 461.742602887688 494.245215297863 17 75 91 1411 117521
475	192704428 256 5556661 6110839 498.626969323546 523.227223029272 8 92 99 764 73004
475	217255585 264 6278827 7109414 532.450630861556 556.831256852105 8 100 107 828 85740
475	241576506 297 7185959 7733397 559.452542540434 584.336732657485 9 108 116 1008 112956
475	277292739 164 7855953 8107137 590.22801191879 599.020195705174 5 117 121 595 70815
vector 477  Floatingscenario.manager.anchorZone[159]  copies  ETV
477	545068 322 12 47584 1.1 156.921926036171 12 1 10 60 398
477	22927738 276 80074 321361 177.931586940948 233.333350175562 9 11 19 135 2085
477	46744424 523 366195 1020982 242.724893247108 294.949257240247 18 20 31 477 12833
477	70547387 933 1071579 2344540 298.428301778817 344.1 34 32 39 1209 43069
477	95194404 673 2406067 3292126 346.011628630243 385.1 26 35 39 965 35841
477	119626012 843 3331416 4036810 387.1 425.1 34 24 35 1033 31837
477	143945784 623 4039162 4639668 426.137841696315 461.1 25 18 28 594 14332
477	168145021 1029 4661511 5519622 461.742602887688 494.245215297863 37 19 27 893 21715
477	192704873 656 5554319 6172276 496.1 526.651986365443 25 23 28 638 16328
477	217256080 731 6204741 7129731 527.925524096323 557.1 28 24 29 744 19834
477	241576929 509 7185959 7746292 559.452542540434 585.1 18 25 32 519 15057
477	277292946 286 7774882 8107137 587.1 599.020195705174 10 28 34 311 9709
vector 478  Floatingscenario.manager.anchorZone[159]  infect  ETV
478	545390 305 12 47584 1.1 156.921926036171 11 1 11 66 506
478	22928014 276 80074 321361 177.931586940948 233.333350175562 9 12 20 144 2364
478	46744947 463 366195 1020982 242.724893247108 294.949257240247 15 21 35 420 12040
478	70548320 639 1071579 2324635 298.428301778817 343.532410727837 20 36 55 910 42070
478	95195077 379 2406067 3236204 346.011628630243 383.85205567594 12 56 67 738 45530
478	119626855 381 3334934 4014226 387.64549886065 423.524493508464 12 68 79 882 64970
478	143946407 287 4039162 4624870 426.137841696315 459.724099817901 9 80 88 756 63564
478	168146050 747 4661511 5519622 461.742602887688 494.245215297863 23 89 111 2300 231012
478	192705529 395 5556661 6172276 498.626969323546 526.651986365443 12 112 123 1410 165818
478	217256811 429 6204741 7109414 527.925524096323 556.831256852105 13 124 136 1690 219882
478	241577438 395 7185959 7721759 559.452542540434 584.333964624099 12 137 148 1710 243818
478	277293232 230 7855953 8107137 590.22801191879 599.020195705174 7 149 155 1064 161756
vector 480  Floatingscenario.manager.anchorZone[160]  copies  ETV
480	545713 322 12 47584 1.1 156.921926036171 12 1 10 60 398
480	22928290 245 80074 321361 177.931586940948 233.333350175562 8 11 18 116 1724
480	46745467 523 366195 1020982 242.724893247108 294.949257240247 18 19 30 459 11897
480	70549248 901 1071579 2344540 298.428301778817 344.1 33 31 37 1139 39377
480	95195750 641 2486034 3292126 348.729783197831 385.1 25 32 37 858 29488
480	119627698 907 3331416 4036810 387.1 425.1 36 21 33 996 28038
480	143947030 601 4039162 4639655 426.137841696315 460.1 24 18 26 542 12400
480	168147091 1008 4675462 5519622 462.042257833705 494.245215297863 36 18 28 876 21526
480	192706197 710 5554319 6172276 496.1 526.651986365443 27 24 29 722 19350
480	217257568 784 6204741 7129731 527.925524096323 557.1 30 24 29 803 21547
480	241577965 541 7185432 7746292 559.452045589093 585.1 19 26 33 557 16469
480	277293528 318 7774882 8107137 587.1 599.020195705174 11 30 37 370 12502
vector 481  Floatingscenario.manager.anchorZone[160]  infect  ETV
481	546035 305 12 47584 1.1 156.921926036171 11 1 11 66 506
481	22928535 245 80074 321361 177.931586940948 233.333350175562 8 12 19 124 1964
481	46745990 463 366195 1020982 242.724893247108 294.949257240247 15 20 34 405 11215
481	70550149 607 1071579 2324635 298.428301778817 343.532410727837 19 35 53 836 37354
481	95196391 347 2486034 3236204 348.729783197831 383.85205567594 11 54 64 649 38401
481	119628605 445 3334934 4027278 387.64549886065 423.954326444078 14 65 78 1001 71799
481	143947631 286 4039162 4624870 426.137841696315 459.724099817901 9 79 87 747 62061
481	168148099 746 4675462 5519622 462.042257833705 494.245215297863 23 88 110 2277 226435
481	192706907 429 5556661 6172276 498.626969323546 526.651986365443 13 111 123 1521 178139
481	217258352 462 6204741 7109414 527.925524096323 556.831256852105 14 124 137 1827 238651
481	241578506 428 7185432 7733397 559.452045589093 584.336732657485 13 138 150 1872 269750
481	277293846 263 7855953 8107137 590.22801191879 599.020195705174 8 151 158 1236 191004
vector 483  Floatingscenario.manager.anchorZone[161]  copies  ETV
483	546358 31 12 26822 1.1 121.1 2 0 1 1 1
vector 484  Floatingscenario.manager.anchorZone[161]  infect  ETV
484	546389 13 12 12 1.1 1.1 1 1 1 1 1
vector 510  Floatingscenario.manager.anchorZone[170]  copies  ETV
510	547458 194 12 72399 1.1 167.1 8 1 5 24 84
510	22929312 245 72432 365214 170.1 240.1 9 3 10 61 461
510	46747056 254 391242 942872 245.30511424985 293.1 9 10 16 120 1632
510	70551251 338 1255404 2326028 303.641587326241 343.533351986553 12 14 18 184 2838
510	95197256 274 2407679 3267156 346.012609206005 384.1 11 15 19 188 3226
510	119629594 323 3334934 3907326 387.64549886065 420.1 14 7 16 173 2247
510	143948232 140 4071142 4639668 429.1 461.1 7 0 6 21 91
vector 511  Floatingscenario.manager.anchorZone[170]  infect  ETV
511	547652 158 12 39388 1.1 143.427516922072 6 1 6 21 91
511	22929557 211 80074 321361 177.931586940948 233.333350175562 7 7 13 70 728
511	46747310 214 391242 791853 245.30511424985 280.612499961421 7 14 20 119 2051
511	70551589 254 1255404 2326028 303.641587326241 343.533351986553 8 21 28 196 4844
511	95197530 127 2407679 3215376 346.012609206005 381.14601546742 4 29 32 122 3726
511	119629917 95 3334934 3516451 387.64549886065 398.939892790866 3 33 35 102 3470
vector 513  Floatingscenario.manager.anchorZone[171]  copies  ETV
513	547846 339 12 47584 1.1 156.921926036171 13 1 9 67 443
513	22929805 293 72432 321361 170.1 233.333350175562 10 8 17 125 1645
513	46747562 483 366195 1020982 242.724893247108 294.949257240247 16 18 31 402 10372
513	70551924 817 1071579 2344540 298.428301778817 344.1 30 32 37 1033 35623
513	95197804 494 2406067 3267156 346.011628630243 384.1 20 29 37 684 23514
513	119630243 758 3331416 4036810 387.1 425.1 31 17 29 737 17995
513	143948519 461 4058783 4643450 427.149251613287 461.229579132861 19 10 19 272 4066
513	168149118 792 4662452 5510608 461.743085960329 494.1 28 12 22 500 9150
513	192707630 538 5554319 6172276 496.1 526.651986365443 20 18 25 420 8906
513	217259163 668 6204741 7129731 527.925524096323 557.1 25 23 29 644 16660
513	241579066 381 7185959 7746292 559.452542540434 585.1 14 25 30 377 10187
513	277294175 222 7774882 8107137 587.1 599.020195705174 8 24 28 208 5420
vector 514  Floatingscenario.manager.anchorZone[171]  infect  ETV
514	548185 305 12 47584 1.1 156.921926036171 11 1 11 66 506
514	22930098 276 80074 321361 177.931586940948 233.333350175562 9 12 20 144 2364
514	46748045 463 366195 1020982 242.724893247108 294.949257240247 15 21 35 420 12040
514	70552741 544 1071579 2324635 298.428301778817 343.532410727837 17 36 52 748 33320
514	95198298 221 2406067 3215376 346.011628630243 381.14601546742 7 53 59 392 21980
514	119631001 317 3334934 4014226 387.64549886065 423.524493508464 10 60 69 645 41685
514	143948980 188 4058783 4643450 427.149251613287 461.229579132861 6 70 75 435 31555
514	168149910 603 4662452 5494070 461.743085960329 493.718430523692 19 76 94 1615 137845
514	192708168 355 5555780 6172276 498.626498816134 526.651986365443 11 95 105 1100 110110
514	217259831 429 6204741 7109414 527.925524096323 556.831256852105 13 106 118 1456 163254
514	241579447 263 7185959 7499079 559.452542540434 576.61266921998 8 119 126 980 120092
514	277294397 164 7855953 8107137 590.22801191879 599.020195705174 5 127 131 645 83215
vector 516  Floatingscenario.manager.anchorZone[172]  copies  ETV
516	548526 322 12 47584 1.1 156.921926036171 12 1 10 60 398
516	22930392 294 72432 321361 170.1 233.333350175562 10 9 18 135 1905
516	46748527 503 366195 1020982 242.724893247108 294.949257240247 17 19 31 437 11453
516	70553553 880 1071579 2344540 298.428301778817 344.1 32 32 39 1158 41988
516	95198792 632 2406067 3267156 346.011628630243 384.1 25 32 40 912 33392
516	119631759 925 3331416 4036810 387.1 425.1 37 21 33 1009 27975
516	143949441 688 4057270 4641023 427.1 461.227957602789 27 17 23 527 10381
516	168150702 957 4662452 5510608 461.743085960329 494.1 34 19 31 885 23389
516	192708712 622 5554319 6172276 496.1 526.651986365443 24 25 31 672 18868
516	217260512 784 6204741 7129731 527.925524096323 557.1 30 24 30 831 23091
516	241579837 455 7185432 7746292 559.452045589093 585.1 17 27 31 485 13869
516	277294627 222 7774882 8107137 587.1 599.020195705174 8 25 29 216 5844
vector 517  Floatingscenario.manager.anchorZone[172]  infect  ETV
517	548848 305 12 47584 1.1 156.921926036171 11 1 11 66 506
517	22930686 276 80074 321361 177.931586940948 233.333350175562 9 12 20 144 2364
517	46749030 463 366195 1020982 242.724893247108 294.949257240247 15 21 35 420 12040
517	70554433 607 1071579 2324635 298.428301778817 343.532410727837 19 36 54 855 39045
517	95199424 317 2406067 3215376 346.011628630243 381.14601546742 10 55 64 595 35485
517	119632684 442 3334934 4026478 387.64549886065 423.953789912522 14 65 78 1001 71799
517	143950129 352 4058363 4641023 427.148729613284 461.227957602789 11 79 89 924 77726
517	168151659 739 4662452 5494070 461.743085960329 493.718430523692 23 90 112 2323 235635
517	192709334 360 5555780 6172276 498.626498816134 526.651986365443 11 113 123 1298 153274
517	217261296 462 6204741 7109414 527.925524096323 556.831256852105 14 124 137 1827 238651
517	241580292 296 7185432 7499079 559.452045589093 576.61266921998 9 138 146 1278 181536
517	277294849 164 7855953 8107137 590.22801191879 599.020195705174 5 147 151 745 111015
vector 519  Floatingscenario.manager.anchorZone[173]  copies  ETV
519	549171 339 12 47584 1.1 156.921926036171 13 1 9 67 443
519	22930980 324 72432 321361 170.1 233.333350175562 11 8 18 143 1969
519	46749531 513 366195 1020982 242.724893247108 294.949257240247 17 19 33 453 12405
519	70555308 870 1071579 2344540 298.428301778817 344.1 32 34 39 1166 42540
519	95200056 632 2406067 3267156 346.011628630243 384.1 25 32 40 920 33992
519	119633609 862 3331416 4036810 387.1 425.1 35 19 32 892 23302
519	143950817 635 4057270 4639668 427.1 461.1 25 16 21 458 8456
519	168152629 944 4662452 5510608 461.743085960329 494.1 33 17 30 801 19861
519	192709967 603 5554319 6172276 496.1 526.651986365443 23 25 30 627 17135
519	217262106 816 6192851 7129731 526.903765185907 557.1 31 25 31 896 25980
519	241580764 540 7185432 7746292 559.452045589093 585.1 20 27 32 580 16866
519	277295079 243 7774882 8107137 587.1 599.020195705174 9 26 30 252 7068
vector 520  Floatingscenario.manager.anchorZone[173]  infect  ETV
520	549510 305 12 47584 1.1 156.921926036171 11 1 11 66 506
520	22931304 307 80074 321361 177.931586940948 233.333350175562 10 12 21 165 2805
520	46750044 493 366195 1020982 242.724893247108 294.949257240247 16 22 37 472 14264
520	70556178 576 1071579 2324635 298.428301778817 343.532410727837 18 38 55 837 39405
520	95200688 317 2406067 3215376 346.011628630243 381.14601546742 10 56 65 605 36685
520	119634471 379 3334934 4026478 387.64549886065 423.953789912522 12 66 77 858 61490
520	143951452 320 4058363 4624870 427.148729613284 459.724099817901 10 78 87 825 68145
520	168153573 745 4662452 5494070 461.743085960329 493.718430523692 23 88 110 2277 226435
520	192710570 362 5556661 6172276 498.626969323546 526.651986365443 11 111 121 1276 148126
520	217262922 495 6192851 7109414 526.903765185907 556.831256852105 15 122 136 1935 249895
520	241581304 362 7185432 7706473 559.452045589093 583.027465754008 11 137 147 1562 221914
520	277295322 164 7855953 8107137 590.22801191879 599.020195705174 5 148 152 750 112510
vector 522  Floatingscenario.manager.anchorZone[174]  copies  ETV
522	549851 357 12 72399 1.1 167.1 14 1 9 75 507
522	22931629 322 72432 328842 170.1 235.12440566186 11 7 17 132 1694
522	46750556 462 366195 1020982 242.724893247108 294.949257240247 15 18 32 375 9655
522	70557043 806 1071579 2344540 298.428301778817 344.1 30 30 36 999 33327
522	95201320 526 2486034 3267156 348.729783197831 384.1 21 29 36 693 22955
522	119635333 820 3331416 4036810 387.1 425.1 33 18 30 786 19128
522	143952087 560 4057270 4639655 427.1 460.1 22 15 20 387 6871
522	168154528 859 4675462 5510608 462.042257833705 494.1 30 16 29 703 16835
522	192711184 572 5554319 6172276 496.1 526.651986365443 22 23 28 559 14255
522	217263763 763 6192851 7129731 526.903765185907 557.1 29 23 29 761 20039
522	241581864 487 7185432 7746292 559.452045589093 585.1 18 25 29 479 12773
522	277295574 222 7794166 8107137 588.1 599.020195705174 8 25 29 216 5844
vector 523  Floatingscenario.manager.anchorZone[174]  infect  ETV
523	550208 305 12 47584 1.1 156.921926036171 11 1 11 66 506
523	22931951 306 80074 328842 177.931586940948 235.12440566186 10 12 21 165 2805
523	46751018 462 366195 1020982 242.724893247108 294.949257240247 15 22 36 435 12895
523	70557849 512 1071579 2343405 298.428301778817 344.034161487019 16 37 52 712 32024
523	95201846 253 2486034 3215376 348.729783197831 381.14601546742 8 53 60 452 25580
523	119636153 379 3334934 4026478 387.64549886065 423.953789912522 12 61 72 798 53210
523	143952647 287 4058363 4624870 427.148729613284 459.724099817901 9 73 81 693 53421
523	168155387 673 4675462 5505852 462.042257833705 493.721178754638 21 82 102 1932 178514
523	192711756 330 5556661 6172276 498.626969323546 526.651986365443 10 103 112 1075 115645
523	217264526 462 6192851 7109414 526.903765185907 556.831256852105 14 113 126 1673 200151
523	241582351 329 7185432 7706473 559.452045589093 583.027465754008 10 127 136 1315 173005