file 71594983 1403964342                                        
version 2
run nodebug-0-20140628-17:00:26-2588
attr configname nodebug
attr datetime 20140628-17:00:26
attr experiment nodebug
attr inifile omnetpp.ini
attr iterationvars ""
attr iterationvars2 $repetition=0
attr measurement ""
attr network Floatingscenario
attr processid 2588
attr repetition 0
attr replication #0
attr resultdir results
attr runnumber 0
attr seedset 0
vector 901  Floatingscenario.node[0].mobility  posx  ETV
901	515919 50782 2 82475 0.1 169.1 1691 2800.9595059214 3941.1266026287 6105874.4068199 22144972709.102
901	23066268 23393 82476 343140 169.2 240.9 718 2313.3677231597 2798.2229354171 1705162.2820156 4060887120.4677
901	46932814 18465 343141 799435 241 297.2 563 2313.3431425754 2313.3677231597 1302420.8416356 3012966338.8485
901	70312016 887 799436 848383 297.3 299.9 27 2313.3431425754 2313.3431425754 62460.264849536 144492025.37312
vector 902  Floatingscenario.node[0].mobility  posy  ETV
902	566701 50855 2 82475 0.1 169.1 1691 417.87650219912 789.65749844242 961723.19637982 565113269.32474
902	23089661 23387 82476 343140 169.2 240.9 718 534.07315461613 614.46750622651 433838.37034868 262452313.51006
902	46951279 18465 343141 799435 241 297.2 563 614.46750622651 614.47155006395 345946.05925522 212573136.61712
902	70311129 887 799436 848383 297.3 299.9 27 614.47155006395 614.47155006395 16590.731851727 10194532.717626
vector 753  Floatingscenario.manager.anchorZone[251]  copies  ETV
753	514515 30 2 25893 0.1 120.1 2 0 1 1 1
vector 754  Floatingscenario.manager.anchorZone[251]  infect  ETV
754	514545 12 2 2 0.1 0.1 1 1 1 1 1
vector 789  Floatingscenario.manager.anchorZone[263]  copies  ETV
789	514963 30 2 25893 0.1 120.1 2 0 1 1 1
vector 790  Floatingscenario.manager.anchorZone[263]  infect  ETV
790	514993 12 2 2 0.1 0.1 1 1 1 1 1
vector 792  Floatingscenario.manager.anchorZone[264]  copies  ETV
792	515023 30 2 25893 0.1 120.1 2 0 1 1 1
vector 793  Floatingscenario.manager.anchorZone[264]  infect  ETV
793	515053 12 2 2 0.1 0.1 1 1 1 1 1
vector 903  Floatingscenario.node[0].mobility  speed  ETV
903	617556 53383 3 82475 0.2 169.1 1690 6.0294455703256e-14 27.779896241473 13212.139042617 244328.40935276
903	23113048 25193 82476 343140 169.2 240.9 718 1.1255579919535e-13 27.778023842725 4914.6378472499 124827.20181907
903	46969744 16877 343141 799435 241 297.2 563 0 0.24910993126651 0.24910993130704 0.062055757855605
903	70310620 509 799436 848383 297.3 299.9 27 0 0 0 0
vector 904  Floatingscenario.node[0].mobility  acceleration  ETV
904	670939 54005 4 82475 0.3 169.1 1689 -4.5 2.6 144.30406809808 3608.9560353458
904	23138241 25806 82476 343140 169.2 240.9 718 -4.5 1.0916148324497 -277.52290659698 942.90855615428
904	46986621 17062 343141 799435 241 297.2 563 -2.4910993126651 2.491099312664 -1.1270984145995e-12 12.411151571116
904	70310111 509 799436 848383 297.3 299.9 27 0 0 0 0
vector 905  Floatingscenario.node[0].mobility  co2emission  ETV
905	724944 45522 4 82475 0.3 169.1 1689 -0.78632570844337 19.689454205709 4930.8506813652 32105.049174161
905	23164047 19703 82476 343140 169.2 240.9 718 -0.68580728078642 11.737884074297 1280.4888638334 5261.360526651
905	47003683 12494 343141 799435 241 297.2 563 0.973 1.2715728675741 596.18457286758 633.84381655755
905	70309494 617 799436 848383 297.3 299.9 27 0.973 0.973 26.271 25.561683
vector 910  Floatingscenario.node[1].mobility  posx  ETV
910	770466 50235 12 82475 1.1 169.1 1681 2450.5898168295 3482.931566886 4737697.1019577 13640381097.881
910	23183750 23009 82476 343140 169.2 240.9 718 3482.931566886 3505.0337081546 2504501.2928414 8736138236.2823
910	47016177 18425 343141 799435 241 297.2 563 3491.3230965835 3737.2408830836 1979630.4840828 6962501913.4309
910	70316264 884 799436 848383 297.3 299.9 27 3739.9777625759 3805.0718842564 101896.24965464 384560205.5589
vector 911  Floatingscenario.node[1].mobility  posy  ETV
911	820701 50568 12 82475 1.1 169.1 1681 560.02272236609 1457.236935307 1480594.3216426 1520774821.6367
911	23206759 23013 82476 343140 169.2 240.9 718 1457.236935307 1479.7597981009 1052633.0471444 1543305294.6422
911	47034602 18435 343141 799435 241 297.2 563 1446.9616145136 1486.2650523605 832040.38030866 1229675717.6267
911	70315380 884 799436 848383 297.3 299.9 27 1435.4155309124 1446.5250984878 38903.68312004 56055732.24487
vector 474  Floatingscenario.manager.anchorZone[158]  copies  ETV
474	510317 31 12 35270 1.1 121.1 2 0 1 1 1
vector 475  Floatingscenario.manager.anchorZone[158]  infect  ETV
475	510348 13 12 12 1.1 1.1 1 1 1 1 1
vector 477  Floatingscenario.manager.anchorZone[159]  copies  ETV
477	510379 31 12 35270 1.1 121.1 2 0 1 1 1
vector 478  Floatingscenario.manager.anchorZone[159]  infect  ETV
478	510410 13 12 12 1.1 1.1 1 1 1 1 1
vector 516  Floatingscenario.manager.anchorZone[172]  copies  ETV
516	510895 31 12 35270 1.1 121.1 2 0 1 1 1
vector 517  Floatingscenario.manager.anchorZone[172]  infect  ETV
517	510926 13 12 12 1.1 1.1 1 1 1 1 1
vector 912  Floatingscenario.node[1].mobility  speed  ETV
912	871269 53714 13 82475 1.2 169.1 1680 1.4663507926766e-14 27.779942976178 13881.320141063 312087.74062483
912	23229772 25304 82476 343140 169.2 240.9 718 1.466143946453e-14 7.3082301490412 432.29786016004 1998.9309080396
912	47053037 19600 343141 799435 241 297.2 563 0 27.777948903888 2547.66927341 50845.218951747
912	70314496 884 799436 848383 297.3 299.9 27 21.556902574838 27.746368199396 682.15440945231 17350.909089716
vector 913  Floatingscenario.node[1].mobility  acceleration  ETV
913	924983 54512 14 82475 1.3 169.1 1679 -4.5 2.6 -86.152440115462 3382.2065419382
913	23255076 25274 82476 343140 169.2 240.9 718 -4.5 2.6 0.0023693072560202 2343.7376885517
913	47072637 19832 343141 799435 241 297.2 563 -3.4032559819543 2.6 277.15536467772 680.28501203683
913	70313578 918 799436 848383 297.3 299.9 27 -3.6389162481242 0.32129161295018 -61.588708236609 188.5078499466
vector 914  Floatingscenario.node[1].mobility  co2emission  ETV
914	979495 44120 14 82475 1.3 169.1 1679 -0.75217181241989 19.365417011688 4726.5841958129 31831.928867344
914	23280350 17994 82476 343140 169.2 240.9 718 0.973 5.3399023775458 938.35872017122 1581.8743186792
914	47092469 16095 343141 799435 241 297.2 563 0.114597408567 20.257199234407 1802.8374046285 15628.3300886
914	70312903 675 799436 848383 297.3 299.9 27 0.973 6.5702125391659 44.882878802962 144.1677462942
vector 919  Floatingscenario.node[2].mobility  posx  ETV
919	1023735 50238 22 82475 2.1 169.1 1671 1004.7049869454 1863.1167810911 2401963.3737176 3628788001.5583
919	23298344 23381 82476 343140 169.2 240.9 718 1863.1168012818 1930.3228196221 1350010.8551635 2538781692.6995
919	47108564 18405 343141 799435 241 297.2 563 1895.9257933346 1919.3554131954 1074041.5128928 2048988526.0203
919	70798011 884 799436 848383 297.3 299.9 27 1895.3591164094 1896.1112526038 51183.562290327 97028040.214972
vector 920  Floatingscenario.node[2].mobility  posy  ETV
920	1073973 50301 22 82475 2.1 169.1 1671 1013.4021154068 1474.6195756624 1920264.7881817 2242229571.1194
920	23321725 23164 82476 343140 169.2 240.9 718 925.49032794075 1013.4021120501 717460.78915934 717515955.33867
920	47126969 18403 343141 799435 241 297.2 563 756.84085924697 925.48961760272 478161.83839406 407362111.90068
920	70797129 882 799436 848383 297.3 299.9 27 751.85148679575 756.57735541618 20355.698467977 15346515.699065
vector 216  Floatingscenario.manager.anchorZone[72]  copies  ETV
216	505947 31 22 35281 2.1 122.1 2 0 1 1 1
vector 217  Floatingscenario.manager.anchorZone[72]  infect  ETV
217	505978 13 22 22 2.1 2.1 1 1 1 1 1
vector 219  Floatingscenario.manager.anchorZone[73]  copies  ETV
219	506009 31 22 35281 2.1 122.1 2 0 1 1 1
vector 220  Floatingscenario.manager.anchorZone[73]  infect  ETV
220	506040 13 22 22 2.1 2.1 1 1 1 1 1
vector 921  Floatingscenario.node[2].mobility  speed  ETV
921	1124274 52071 23 82475 2.2 169.1 1670 5.889002670763e-14 22.219776994304 12332.146376356 188770.64683928
921	23344889 25093 82476 343140 169.2 240.9 718 5.8588975953735e-14 15.076126857778 1447.9760085694 11699.519639401
921	47145372 19063 343141 799435 241 297.2 563 4.3270338359171e-06 11.806457537101 1704.8334053886 10770.453124172
921	70796243 886 799436 848383 297.3 299.9 27 1.1447675178434 2.6161151325853 48.995263317108 93.998583294577
vector 922  Floatingscenario.node[2].mobility  acceleration  ETV
922	1176345 52955 24 82475 2.3 169.1 1669 -4.5 2.6 -137.75169720813 3843.3894012142
922	23369982 25510 82476 343140 169.2 240.9 718 -3.867344096413 2.6 0.06981541523625 840.22283911988
922	47164435 19359 343141 799435 241 297.2 563 -3.8888888888889 2.6 26.608500591068 1276.5482105818
922	70795308 935 799436 848383 297.3 299.9 27 -1.1332921914367 0.12074815403754 -15.232687652321 11.691769059754
vector 923  Floatingscenario.node[2].mobility  co2emission  ETV
923	1229300 44667 24 82475 2.3 169.1 1669 0.32987988944856 15.985684277187 4134.1711925206 20304.200137761
923	23395492 20368 82476 343140 169.2 240.9 718 0.973 9.4691147046224 1165.5503961302 3566.213309382
923	47183794 16673 343141 799435 241 297.2 563 0.973 8.6756040846344 1031.7722480323 3136.3342366839
923	70794652 656 799436 848383 297.3 299.9 27 0.973 1.2659602779846 27.250757246548 27.716353313709
vector 255  Floatingscenario.manager.anchorZone[85]  copies  ETV
255	506359 31 29 35281 2.8 122.1 2 0 1 1 1
vector 256  Floatingscenario.manager.anchorZone[85]  infect  ETV
256	506390 13 29 29 2.8 2.8 1 1 1 1 1
vector 928  Floatingscenario.node[3].mobility  posx  ETV
928	1274153 50081 32 82475 3.1 169.1 1661 834.2036495538 1877.9156143759 2463060.0349487 3899422209.3854
928	23415860 23391 82476 343140 169.2 240.9 718 1877.9156152462 1930.3297391715 1358806.775651 2571794908.0573
928	47200467 18397 343141 799435 241 297.2 563 1884.9673222247 1918.220071562 1072561.1533746 2043360809.1321
928	71293344 883 799436 848383 297.3 299.9 27 1884.8314421726 1884.9636059609 50892.182058591 95926451.696589
vector 929  Floatingscenario.node[3].mobility  posy  ETV
929	1324234 50037 32 82475 3.1 169.1 1661 775.49147565316 1170.5205013896 1710518.9388728 1773824588.9422
929	23439251 23387 82476 343140 169.2 240.9 718 918.0685713412 1010.9417907853 710951.67753301 704898777.6341
929	47218864 18406 343141 799435 241 297.2 563 707.5605568108 918.06856582633 469778.58351526 393753092.81037
929	71292463 881 799436 848383 297.3 299.9 27 706.70678686967 707.53720655252 19091.972891746 13500128.638558
vector 168  Floatingscenario.manager.anchorZone[56]  copies  ETV
168	505259 31 32 36955 3.1 123.1 2 0 1 1 1
vector 169  Floatingscenario.manager.anchorZone[56]  infect  ETV
169	505290 13 32 32 3.1 3.1 1 1 1 1 1
vector 171  Floatingscenario.manager.anchorZone[57]  copies  ETV
171	505321 31 32 36955 3.1 123.1 2 0 1 1 1
vector 172  Floatingscenario.manager.anchorZone[57]  infect  ETV
172	505352 13 32 32 3.1 3.1 1 1 1 1 1
vector 207  Floatingscenario.manager.anchorZone[69]  copies  ETV
207	505753 31 32 36955 3.1 123.1 2 0 1 1 1
vector 208  Floatingscenario.manager.anchorZone[69]  infect  ETV
208	505784 13 32 32 3.1 3.1 1 1 1 1 1
vector 930  Floatingscenario.node[3].mobility  speed  ETV
930	1374271 52240 33 82475 3.2 169.1 1660 5.8541775500576e-14 22.219471060962 14669.887819801 269193.12885479
930	23462638 25219 82476 343140 169.2 240.9 718 5.8547462085139e-14 15.996550779315 1373.0295897857 12352.846667292
930	47237270 19172 343141 799435 241 297.2 563 2.3667955994148e-07 17.016086146127 2131.5651931123 19768.435759495
930	71291548 915 799436 848383 297.3 299.9 27 0.018135216487404 0.60244261313597 8.4263235807985 3.5669859266205
vector 931  Floatingscenario.node[3].mobility  acceleration  ETV
931	1426511 53605 34 82475 3.3 169.1 1659 -4.5 2.6 -205.93965110708 2906.9007991322
931	23487857 25604 82476 343140 169.2 240.9 718 -3.7998206841169 2.6 0.00046968974269113 883.24992489524
931	47256442 19082 343141 799435 241 297.2 563 -4.5 2.6 2.3637088975751 1950.4985160106
931	71290650 898 799436 848383 297.3 299.9 27 -3.8888888888889 2.5947955779288 -2.1829146515996 269.38671357992
vector 932  Floatingscenario.node[3].mobility  co2emission  ETV
932	1480116 43339 34 82475 3.3 169.1 1659 0.42413724995848 16.475335235625 4277.2734762351 24280.788455684
932	23513461 20041 82476 343140 169.2 240.9 718 0.973 11.790483992253 1187.109434091 3979.0428398173
932	47275524 16843 343141 799435 241 297.2 563 0.973 12.18548403491 1303.2673855707 6300.7677965302
932	71289874 776 799436 848383 297.3 299.9 27 0.973 1.5113162148839 33.177241163992 42.051517653102
vector 937  Floatingscenario.node[4].mobility  posx  ETV
937	1523455 49780 42 82475 4.1 169.1 1651 1410.8168097082 2690.0171379704 3402039.572194 7100883052.2542
vector 938  Floatingscenario.node[4].mobility  posy  ETV
938	1573235 49770 42 82475 4.1 169.1 1651 999.40115421148 1386.5942173348 1986735.5197622 2430412156.1458
938	22899310 20574 82476 304404 169.2 232.4 633 893.8003054963 1094.9240434589 591132.98309458 554382071.18392
vector 525  Floatingscenario.manager.anchorZone[175]  copies  ETV
525	511377 31 42 36966 4.1 124.1 2 0 1 1 1
vector 526  Floatingscenario.manager.anchorZone[175]  infect  ETV
526	511408 13 42 42 4.1 4.1 1 1 1 1 1
vector 528  Floatingscenario.manager.anchorZone[176]  copies  ETV
528	511439 31 42 36966 4.1 124.1 2 0 1 1 1
vector 529  Floatingscenario.manager.anchorZone[176]  infect  ETV
529	511470 13 42 42 4.1 4.1 1 1 1 1 1
vector 564  Floatingscenario.manager.anchorZone[188]  copies  ETV
564	512063 31 42 36966 4.1 124.1 2 0 1 1 1
vector 565  Floatingscenario.manager.anchorZone[188]  infect  ETV
565	512094 13 42 42 4.1 4.1 1 1 1 1 1
vector 567  Floatingscenario.manager.anchorZone[189]  copies  ETV
567	512125 31 42 36966 4.1 124.1 2 0 1 1 1
vector 568  Floatingscenario.manager.anchorZone[189]  infect  ETV
568	512156 13 42 42 4.1 4.1 1 1 1 1 1
vector 939  Floatingscenario.node[4].mobility  speed  ETV
939	1623005 51456 43 82475 4.2 169.1 1650 1.1256911220885e-13 22.219992804453 16383.259566816 287926.12466411
939	22878019 21291 82476 304404 169.2 232.4 633 1.6949532757803e-08 19.838681242808 4043.948839496 50487.927952676
vector 940  Floatingscenario.node[4].mobility  acceleration  ETV
940	1674461 52427 44 82475 4.3 169.1 1649 -4.5 2.6 -21.524949037155 4046.2322083576
940	22856170 21849 82476 304404 169.2 232.4 633 -4.5 2.6 -88.375344959543 942.29108015243
vector 941  Floatingscenario.node[4].mobility  co2emission  ETV
941	1726888 44884 44 82475 4.3 169.1 1649 0.27528195559546 15.553650645197 4846.4398913504 27514.593672653
941	22837722 18448 82476 304404 169.2 232.4 633 0.88994844238573 8.3284572751566 1103.4543342238 2993.6715361811
vector 946  Floatingscenario.node[5].mobility  posx  ETV
946	1771772 49543 52 82475 5.1 169.1 1641 3210.640382031 4012.57669663 6356011.8589099 24681922386.425
946	23533502 23356 82476 343140 169.2 240.9 718 2631.9943223834 3208.7586480373 1995780.1819767 5564657463.8469
946	47292367 18401 343141 799435 241 297.2 563 2351.4736046959 2631.6161065328 1390208.6629443 3437778013.6319
946	71380777 883 799436 848383 297.3 299.9 27 2333.5847930169 2350.9933285589 63263.822810555 148234484.96641
vector 947  Floatingscenario.node[5].mobility  posy  ETV
947	1821315 49530 52 82475 5.1 169.1 1641 1184.3235877918 1474.0515935022 2268196.4157788 3141580506.2954
947	23556858 23367 82476 343140 169.2 240.9 718 706.73265289199 1209.9281885464 600135.35181537 514568751.8876
947	47310768 18403 343141 799435 241 297.2 563 587.55107627103 706.3998354672 351339.14568597 219945477.14705
947	71379892 885 799436 848383 297.3 299.9 27 604.92874969643 607.79268844625 16368.117129292 9922807.2115658
vector 795  Floatingscenario.manager.anchorZone[265]  copies  ETV
795	515083 31 52 36977 5.1 125.1 2 0 1 1 1
vector 796  Floatingscenario.manager.anchorZone[265]  infect  ETV
796	515114 13 52 52 5.1 5.1 1 1 1 1 1
vector 798  Floatingscenario.manager.anchorZone[266]  copies  ETV
798	515145 31 52 36977 5.1 125.1 2 0 1 1 1
vector 799  Floatingscenario.manager.anchorZone[266]  infect  ETV
799	515176 13 52 52 5.1 5.1 1 1 1 1 1
vector 837  Floatingscenario.manager.anchorZone[279]  copies  ETV
837	515503 31 52 36977 5.1 125.1 2 0 1 1 1
vector 838  Floatingscenario.manager.anchorZone[279]  infect  ETV
838	515534 13 52 52 5.1 5.1 1 1 1 1 1
vector 750  Floatingscenario.manager.anchorZone[250]  copies  ETV
750	514453 31 52 25893 5.1 120.1 2 0 1 1 1
vector 751  Floatingscenario.manager.anchorZone[250]  infect  ETV
751	514484 13 52 52 5.1 5.1 1 1 1 1 1
vector 948  Floatingscenario.node[5].mobility  speed  ETV
948	1870845 52379 53 82475 5.2 169.1 1640 5.8543250341995e-14 27.779900484288 11383.894042949 211656.8132687
948	23580225 23929 82476 343140 169.2 240.9 718 2.3454954184783e-08 27.779407031827 7674.223711054 177978.37272028
948	47329171 18654 343141 799435 241 297.2 563 0.0016505688759737 17.326669175636 3230.4916754025 29658.293070058
948	71379009 883 799436 848383 297.3 299.9 27 4.973892937038 8.9876058690488 185.41299294985 1312.1023704079
vector 949  Floatingscenario.node[5].mobility  acceleration  ETV
949	1923224 53567 54 82475 5.3 169.1 1639 -4.5 2.6 149.08458530288 3244.9925107308
949	23604154 24760 82476 343140 169.2 240.9 718 -4.5 2.5977845951197 -199.96445791164 1236.1171661488
949	47347825 19064 343141 799435 241 297.2 563 -3.0762932666443 2.6 -1.7086218360268 1228.2477066797
949	71378116 893 799436 848383 297.3 299.9 27 0.22404102429277 2.4690215279814 41.202864340342 72.506788994082
vector 950  Floatingscenario.node[5].mobility  co2emission  ETV
950	1976791 43511 54 82475 5.3 169.1 1639 -0.68098623446318 19.90030788794 4764.2490462914 33821.665306235
950	23628914 21207 82476 343140 169.2 240.9 718 -0.76540707742687 21.020517465118 1773.2687884968 10757.833803156
950	47366889 15975 343141 799435 241 297.2 563 0.973 12.309530725991 1320.2869246605 6098.4559385217
950	71377233 883 799436 848383 297.3 299.9 27 1.7759890888815 6.0109407534482 109.45920411175 482.58592916938
vector 759  Floatingscenario.manager.anchorZone[253]  copies  ETV
759	514641 31 55 36977 5.4 125.1 2 0 1 1 1
vector 760  Floatingscenario.manager.anchorZone[253]  infect  ETV
760	514672 13 55 55 5.4 5.4 1 1 1 1 1
vector 258  Floatingscenario.manager.anchorZone[86]  copies  ETV
258	506421 31 56 35281 5.5 122.1 2 0 1 1 1
vector 259  Floatingscenario.manager.anchorZone[86]  infect  ETV
259	506452 13 56 56 5.5 5.5 1 1 1 1 1
vector 956  Floatingscenario.node[6].mobility  posy  ETV
956	173739 36774 62 41463 6.1 129.8 1238 1208.7823594536 1630.0801996362 1692880.2652029 2331607407.3598
vector 840  Floatingscenario.manager.anchorZone[280]  copies  ETV
840	515565 31 62 36988 6.1 126.1 2 0 1 1 1
vector 841  Floatingscenario.manager.anchorZone[280]  infect  ETV
841	515596 13 62 62 6.1 6.1 1 1 1 1 1
vector 876  Floatingscenario.manager.anchorZone[292]  copies  ETV
876	515759 31 62 36988 6.1 126.1 2 0 1 1 1
vector 877  Floatingscenario.manager.anchorZone[292]  infect  ETV
877	515790 13 62 62 6.1 6.1 1 1 1 1 1
vector 879  Floatingscenario.manager.anchorZone[293]  copies  ETV
879	515821 31 62 36988 6.1 126.1 2 0 1 1 1
vector 880  Floatingscenario.manager.anchorZone[293]  infect  ETV
880	515852 13 62 62 6.1 6.1 1 1 1 1 1
vector 957  Floatingscenario.node[6].mobility  speed  ETV
957	136981 36758 63 41463 6.2 129.8 1237 3.322853211367 27.779792706172 21541.160671913 468362.02348047
vector 165  Floatingscenario.manager.anchorZone[55]  copies  ETV
165	505197 31 64 36955 6.3 123.1 2 0 1 1 1
vector 166  Floatingscenario.manager.anchorZone[55]  infect  ETV
166	505228 13 64 64 6.3 6.3 1 1 1 1 1
vector 958  Floatingscenario.node[6].mobility  acceleration  ETV
958	99909 37072 64 41463 6.3 129.8 1236 -4.5 2.6 -148.11871193613 4373.2820317017
vector 959  Floatingscenario.node[6].mobility  co2emission  ETV
959	66661 33248 64 41463 6.3 129.8 1236 -0.78735944768497 15.667595057238 4961.30521594 31771.790034578
vector 964  Floatingscenario.node[7].mobility  posx  ETV
964	2020302 48988 72 82475 7.1 169.1 1621 2145.2774291281 3736.0708298419 4522133.1709017 13146872397.542
964	23650121 23388 82476 343140 169.2 240.9 718 1604.5489918527 2145.2774291281 1428625.9866402 2864554979.2553
vector 965  Floatingscenario.node[7].mobility  posy  ETV
965	2069290 48980 72 82475 7.1 169.1 1621 1208.7925254422 1386.4054284787 2123344.8137584 2788046450.8608
965	23673509 23382 82476 343140 169.2 240.9 718 1386.4054284787 1477.6618484725 1014503.3224092 1434080593.3076
965	46632600 13363 343141 665903 241 281.8 409 1477.8894062075 1821.1170821546 651015.08107465 1040964955.9715
vector 720  Floatingscenario.manager.anchorZone[240]  copies  ETV
720	514027 31 72 36999 7.1 127.1 2 0 1 1 1
vector 721  Floatingscenario.manager.anchorZone[240]  infect  ETV
721	514058 13 72 72 7.1 7.1 1 1 1 1 1
vector 762  Floatingscenario.manager.anchorZone[254]  copies  ETV
762	514703 31 72 36999 7.1 127.1 2 0 1 1 1
vector 763  Floatingscenario.manager.anchorZone[254]  infect  ETV
763	514734 13 72 72 7.1 7.1 1 1 1 1 1
vector 966  Floatingscenario.node[7].mobility  speed  ETV
966	2118270 50696 73 82475 7.2 169.1 1620 1.1254264191807e-13 22.219547443429 16594.40510719 289776.38066443
966	23696891 24392 82476 343140 169.2 240.9 718 1.1257287260649e-13 18.185082541717 5497.6344347381 71886.437747748
966	46619236 13364 343141 665903 241 281.8 409 3.4542810807697 13.889854078838 5059.0074257055 66195.797327585
vector 967  Floatingscenario.node[7].mobility  acceleration  ETV
967	2168966 51861 74 82475 7.3 169.1 1619 -4.5 2.6 -82.688119137352 3293.1432300522
967	23721283 24869 82476 343140 169.2 240.9 718 -4.5 2.6 138.75843140096 1141.2188063516
967	46605550 13686 343141 665903 241 281.8 409 -4.5 2.6 -0.89465171350174 736.30913680991
vector 968  Floatingscenario.node[7].mobility  co2emission  ETV
968	2220827 42868 74 82475 7.3 169.1 1619 0.26817995744708 16.562624564782 4524.3396890235 23974.211737846
968	23746152 19246 82476 343140 169.2 240.9 718 0.973 12.871295402102 1828.9566534853 8596.2516974408
968	46593532 12018 343141 665903 241 281.8 409 0.973 10.172128282493 1095.5564937034 4372.8248175314
vector 973  Floatingscenario.node[8].mobility  posx  ETV
973	2263875 48753 82 82475 8.1 169.1 1611 1275.5128276642 1914.9125136607 2758834.0197685 4781929286.4223
973	23765398 23396 82476 343140 169.2 240.9 718 1914.9125136607 1930.3320314449 1376091.6144919 2637373408.3195
973	47382864 18411 343141 799435 241 297.2 563 1894.4968987903 1915.951376861 1072344.5039679 2042510314.29
973	71512113 882 799436 848383 297.3 299.9 27 1893.9855997087 1894.4674889537 51143.024852612 96874407.638165
vector 974  Floatingscenario.node[8].mobility  posy  ETV
974	2312628 48759 82 82475 8.1 169.1 1611 897.08056332737 1098.2197723979 1649851.3881206 1691508102.2262
974	23788794 23394 82476 343140 169.2 240.9 718 903.23946034455 1004.7938010515 695215.29937468 674698521.85779
974	47401275 18403 343141 799435 241 297.2 563 746.43394776378 903.23946034427 465529.58253227 385946342.11297
974	71511227 886 799436 848383 297.3 299.9 27 743.22132177492 746.24915806098 20100.991134012 14964831.21852
vector 246  Floatingscenario.manager.anchorZone[82]  copies  ETV
246	506169 31 82 41444 8.1 128.1 2 0 1 1 1
vector 247  Floatingscenario.manager.anchorZone[82]  infect  ETV
247	506200 13 82 82 8.1 8.1 1 1 1 1 1
vector 249  Floatingscenario.manager.anchorZone[83]  copies  ETV
249	506231 31 82 41444 8.1 128.1 2 0 1 1 1
vector 250  Floatingscenario.manager.anchorZone[83]  infect  ETV
250	506262 13 82 82 8.1 8.1 1 1 1 1 1
vector 285  Floatingscenario.manager.anchorZone[95]  copies  ETV
285	506581 31 82 41444 8.1 128.1 2 0 1 1 1
vector 286  Floatingscenario.manager.anchorZone[95]  infect  ETV
286	506612 13 82 82 8.1 8.1 1 1 1 1 1
vector 288  Floatingscenario.manager.anchorZone[96]  copies  ETV
288	506643 31 82 41444 8.1 128.1 2 0 1 1 1
vector 289  Floatingscenario.manager.anchorZone[96]  infect  ETV
289	506674 13 82 82 8.1 8.1 1 1 1 1 1
vector 975  Floatingscenario.node[8].mobility  speed  ETV
975	2361387 52327 83 82475 8.2 169.1 1610 1.1255888197333e-13 22.218526805961 8148.9764265053 129859.51174815
975	23812188 25509 82476 343140 169.2 240.9 718 1.1255141101231e-13 15.123649439585 1147.9999999742 11523.448408565
975	47419678 19239 343141 799435 241 297.2 563 1.5267195909057e-11 13.499633094409 1584.3122406974 10398.50537958
975	71510331 896 799436 848383 297.3 299.9 27 0.62656911912009 1.8596348225389 31.284100913556 39.877049938165
vector 976  Floatingscenario.node[8].mobility  acceleration  ETV
976	2413714 53512 84 82475 8.3 169.1 1609 -4.5 2.6 -110.73124694426 2435.2074274853
976	23837697 25903 82476 343140 169.2 240.9 718 -4.3161313778077 2.6 2.7704041378485e-08 840.12316974106
976	47438917 19542 343141 799435 241 297.2 563 -4.5 2.6 18.710378122551 993.78168739279
976	71509397 934 799436 848383 297.3 299.9 27 -1.207374262885 -0.11402992519485 -12.444686959383 7.867005026265
vector 977  Floatingscenario.node[8].mobility  co2emission  ETV
977	2467226 40510 84 82475 8.3 169.1 1609 0.44358787691934 15.501686571547 3434.3411053195 17206.310060868
977	23863600 18748 82476 343140 169.2 240.9 718 0.973 11.142088094862 1161.6447686225 3853.5954707257
977	47458459 16778 343141 799435 241 297.2 563 0.973 9.9714067654716 978.95740834813 2964.3054053836
977	71508780 617 799436 848383 297.3 299.9 27 0.973 0.973 26.271 25.561683
vector 801  Floatingscenario.manager.anchorZone[267]  copies  ETV
801	515207 31 88 36988 8.7 126.1 2 0 1 1 1
vector 802  Floatingscenario.manager.anchorZone[267]  infect  ETV
802	515238 13 88 88 8.7 8.7 1 1 1 1 1
vector 982  Floatingscenario.node[9].mobility  posx  ETV
982	2507736 48383 92 82475 9.1 169.1 1601 1639.670744933 1900.1134876522 2794719.2435152 4890469076.6292
982	23882348 23393 82476 343140 169.2 240.9 718 1900.1134876539 1930.335609247 1369971.3412359 2614023239.6556
982	47475237 18394 343141 799435 241 297.2 563 1904.5547739235 1917.0857203649 1074900.2766318 2052247992.2224
982	71552716 884 799436 848383 297.3 299.9 27 1904.1201831316 1904.5516201201 51418.593405474 97921176.325278
vector 983  Floatingscenario.node[9].mobility  posy  ETV
983	2556119 48474 92 82475 9.1 169.1 1601 1007.2513668335 1146.6438645044 1696538.155234 1802141692.6028
983	23905741 23384 82476 343140 169.2 240.9 718 910.65398795353 1007.2513668332 701225.43596729 686150755.95735
983	47493631 18401 343141 799435 241 297.2 563 809.76747308564 910.6539879424 475236.41806689 401779422.48385
983	71551830 886 799436 848383 297.3 299.9 27 807.01786210315 809.74751929758 21835.975228841 17659641.999271
vector 327  Floatingscenario.manager.anchorZone[109]  copies  ETV
327	507037 224 92 78466 9.1 164.729938461777 9 1 7 41 225
327	23063497 198 84074 317045 170.709845028333 237.83411269527 7 7 12 65 623
327	46928833 465 343307 773731 242.1 295.01449119203 18 9 14 189 2017
327	71594613 31 830524 830524 299.704842855875 299.704842855875 1 15 15 15 225
vector 328  Floatingscenario.manager.anchorZone[109]  infect  ETV
328	507261 206 92 78466 9.1 164.729938461777 8 1 8 36 204
328	23063695 182 84074 317045 170.709845028333 237.83411269527 6 9 14 69 811
328	46929298 309 371584 773731 248.317615744853 295.01449119203 10 15 24 195 3885
328	71594644 31 830524 830524 299.704842855875 299.704842855875 1 25 25 25 625
vector 330  Floatingscenario.manager.anchorZone[110]  copies  ETV
330	507485 179 92 80341 9.1 164.732251640603 8 1 4 18 48
330	23063895 77 84074 157587 170.709845028333 205.828498901926 3 2 3 8 22
330	46929760 230 384979 729484 249.047011666737 292.1 8 4 10 58 452
330	71594675 31 830524 830524 299.704842855875 299.704842855875 1 10 10 10 100
vector 331  Floatingscenario.manager.anchorZone[110]  infect  ETV
331	507664 125 92 80341 9.1 164.732251640603 5 1 5 15 55
331	23063972 59 84074 157587 170.709845028333 205.828498901926 2 6 7 13 85
331	46929990 215 384979 714581 249.047011666737 291.215003862217 7 8 14 77 875
331	71594706 31 830524 830524 299.704842855875 299.704842855875 1 15 15 15 225
vector 366  Floatingscenario.manager.anchorZone[122]  copies  ETV
366	508227 208 92 71941 9.1 164.516563067223 8 1 8 36 204
366	23064121 337 84984 317778 170.710825705701 237.834597169651 11 9 19 154 2266
366	46930338 266 346266 732482 243.049110379404 294.5132213586 9 20 26 212 5032
366	71594737 31 829275 829275 299.704370468459 299.704370468459 1 27 27 27 729
vector 367  Floatingscenario.manager.anchorZone[122]  infect  ETV
367	508435 208 92 71941 9.1 164.516563067223 8 1 8 36 204
367	23064458 337 84984 317778 170.710825705701 237.834597169651 11 9 19 154 2266
367	46930604 246 346266 732482 243.049110379404 294.5132213586 8 20 27 188 4460
367	71594768 31 829275 829275 299.704370468459 299.704370468459 1 28 28 28 784
vector 489  Floatingscenario.manager.anchorZone[163]  copies  ETV
489	510635 31 93 36966 9.2 124.1 2 0 1 1 1
vector 490  Floatingscenario.manager.anchorZone[163]  infect  ETV
490	510666 13 93 93 9.2 9.2 1 1 1 1 1
vector 984  Floatingscenario.node[9].mobility  speed  ETV
984	2604593 52260 93 82475 9.2 169.1 1600 5.8537987928755e-14 18.061444983865 4366.7005409262 45343.614553559
984	23929125 25407 82476 343140 169.2 240.9 718 5.8548671939544e-14 15.843898157525 1223.0099991092 12130.794766576
984	47512032 19052 343141 799435 241 297.2 563 0 11.192153020083 1016.3956722695 6225.8726769999
984	71550934 896 799436 848383 297.3 299.9 27 0.20201742262862 2.1745344995839 29.810305179612 43.205914477168
vector 985  Floatingscenario.node[9].mobility  acceleration  ETV
985	2656853 53293 94 82475 9.3 169.1 1599 -4.4130918316874 2.6 -111.78740519886 2160.7418138624
985	23954532 25793 82476 343140 169.2 240.9 718 -3.6761390926917 2.6 9.5108513979309e-07 760.84626300553
985	47531084 18729 343141 799435 241 297.2 563 -4.5 2.5815282462165 2.0201730998094 897.09286981109
985	71550166 768 799436 848383 297.3 299.9 27 -4.5 2.4786142363047 19.725170769552 164.52478993501
vector 986  Floatingscenario.node[9].mobility  co2emission  ETV
986	2710146 41497 94 82475 9.3 169.1 1599 0.973 13.120468939375 2755.6725800004 9968.9472900044