file 71781907 1403965568                                        
version 2
run nodebug-0-20140628-17:22:51-3320
attr configname nodebug
attr datetime 20140628-17:22:51
attr experiment nodebug
attr inifile omnetpp.ini
attr iterationvars ""
attr iterationvars2 $repetition=0
attr measurement ""
attr network Floatingscenario
attr processid 3320
attr repetition 0
attr replication #0
attr resultdir results
attr runnumber 0
attr seedset 0
vector 901  Floatingscenario.node[0].mobility  posx  ETV
901	563234 50583 2 72418 0.1 168.8 1688 2809.1624064472 3941.1266026287 6097463.3317675 22121390632.991
901	22940250 23192 72419 365217 168.9 240.2 714 2313.3677231597 2806.4242968134 1697379.7830059 4047007505.0209
901	46759795 18487 365218 1034409 240.3 296.5 563 2313.3431425754 2313.3677231597 1302421.0136997 3012967134.9393
901	70126903 1150 1034410 1110653 296.6 299.9 34 2313.3431425754 2313.3431425754 78653.666847564 181952920.84022
vector 902  Floatingscenario.node[0].mobility  posy  ETV
902	613817 50656 2 72418 0.1 168.8 1688 417.87650219912 789.65749844242 960123.74743772 564260523.25946
902	22963442 23186 72419 365217 168.9 240.2 714 532.68819124175 614.46750622651 431136.5467472 260662067.36189
902	46778282 18487 365218 1034409 240.3 296.5 563 614.46750622651 614.47155006395 345946.03094836 212573101.82971
902	70125753 1150 1034410 1110653 296.6 299.9 34 614.47155006395 614.47155006395 20892.032702174 12837559.718492
vector 711  Floatingscenario.manager.anchorZone[237]  copies  ETV
711	558120 41 2 45939 0.1 151.505064102124 2 1 2 3 5
711	22936296 19 365214 365214 240.1 240.1 1 1 1 1 1
711	46757125 19 523856 523856 260.1 260.1 1 0 0 0 0
vector 712  Floatingscenario.manager.anchorZone[237]  infect  ETV
712	558161 41 2 45939 0.1 151.505064102124 2 1 2 3 5
vector 714  Floatingscenario.manager.anchorZone[238]  copies  ETV
714	558202 41 2 45939 0.1 151.505064102124 2 1 2 3 5
714	22936334 19 365214 365214 240.1 240.1 1 1 1 1 1
714	46757163 19 523856 523856 260.1 260.1 1 0 0 0 0
vector 715  Floatingscenario.manager.anchorZone[238]  infect  ETV
715	558243 41 2 45939 0.1 151.505064102124 2 1 2 3 5
vector 717  Floatingscenario.manager.anchorZone[239]  copies  ETV
717	558284 30 2 19292 0.1 120.1 2 0 1 1 1
vector 718  Floatingscenario.manager.anchorZone[239]  infect  ETV
718	558314 12 2 2 0.1 0.1 1 1 1 1 1
vector 747  Floatingscenario.manager.anchorZone[249]  copies  ETV
747	559452 12 2 2 0.1 0.1 1 1 1 1 1
747	22937231 19 365214 365214 240.1 240.1 1 0 0 0 0
vector 748  Floatingscenario.manager.anchorZone[249]  infect  ETV
748	559464 12 2 2 0.1 0.1 1 1 1 1 1
vector 750  Floatingscenario.manager.anchorZone[250]  copies  ETV
750	559476 12 2 2 0.1 0.1 1 1 1 1 1
750	22937269 19 365214 365214 240.1 240.1 1 0 0 0 0
vector 751  Floatingscenario.manager.anchorZone[250]  infect  ETV
751	559488 12 2 2 0.1 0.1 1 1 1 1 1
vector 753  Floatingscenario.manager.anchorZone[251]  copies  ETV
753	559500 41 2 45939 0.1 151.505064102124 2 1 2 3 5
753	22937307 19 365214 365214 240.1 240.1 1 1 1 1 1
753	46758002 19 523856 523856 260.1 260.1 1 0 0 0 0
vector 754  Floatingscenario.manager.anchorZone[251]  infect  ETV
754	559541 41 2 45939 0.1 151.505064102124 2 1 2 3 5
vector 756  Floatingscenario.manager.anchorZone[252]  copies  ETV
756	559582 30 2 19292 0.1 120.1 2 0 1 1 1
vector 757  Floatingscenario.manager.anchorZone[252]  infect  ETV
757	559612 12 2 2 0.1 0.1 1 1 1 1 1
vector 759  Floatingscenario.manager.anchorZone[253]  copies  ETV
759	559642 30 2 19292 0.1 120.1 2 0 1 1 1
vector 760  Floatingscenario.manager.anchorZone[253]  infect  ETV
760	559672 12 2 2 0.1 0.1 1 1 1 1 1
vector 786  Floatingscenario.manager.anchorZone[262]  copies  ETV
786	560692 12 2 2 0.1 0.1 1 1 1 1 1
786	22938234 19 365214 365214 240.1 240.1 1 0 0 0 0
vector 787  Floatingscenario.manager.anchorZone[262]  infect  ETV
787	560704 12 2 2 0.1 0.1 1 1 1 1 1
vector 789  Floatingscenario.manager.anchorZone[263]  copies  ETV
789	560716 12 2 2 0.1 0.1 1 1 1 1 1
789	22938272 19 365214 365214 240.1 240.1 1 0 0 0 0
vector 790  Floatingscenario.manager.anchorZone[263]  infect  ETV
790	560728 12 2 2 0.1 0.1 1 1 1 1 1
vector 792  Floatingscenario.manager.anchorZone[264]  copies  ETV
792	560740 30 2 19292 0.1 120.1 2 0 1 1 1
vector 793  Floatingscenario.manager.anchorZone[264]  infect  ETV
793	560770 12 2 2 0.1 0.1 1 1 1 1 1
vector 795  Floatingscenario.manager.anchorZone[265]  copies  ETV
795	560800 30 2 19292 0.1 120.1 2 0 1 1 1
vector 796  Floatingscenario.manager.anchorZone[265]  infect  ETV
796	560830 12 2 2 0.1 0.1 1 1 1 1 1
vector 798  Floatingscenario.manager.anchorZone[266]  copies  ETV
798	560860 30 2 19292 0.1 120.1 2 0 1 1 1
vector 799  Floatingscenario.manager.anchorZone[266]  infect  ETV
799	560890 12 2 2 0.1 0.1 1 1 1 1 1
vector 825  Floatingscenario.manager.anchorZone[275]  copies  ETV
825	561738 30 2 19292 0.1 120.1 2 0 1 1 1
vector 826  Floatingscenario.manager.anchorZone[275]  infect  ETV
826	561768 12 2 2 0.1 0.1 1 1 1 1 1
vector 828  Floatingscenario.manager.anchorZone[276]  copies  ETV
828	561798 30 2 19292 0.1 120.1 2 0 1 1 1
vector 829  Floatingscenario.manager.anchorZone[276]  infect  ETV
829	561828 12 2 2 0.1 0.1 1 1 1 1 1
vector 831  Floatingscenario.manager.anchorZone[277]  copies  ETV
831	561858 30 2 19292 0.1 120.1 2 0 1 1 1
vector 832  Floatingscenario.manager.anchorZone[277]  infect  ETV
832	561888 12 2 2 0.1 0.1 1 1 1 1 1
vector 834  Floatingscenario.manager.anchorZone[278]  copies  ETV
834	561918 30 2 19292 0.1 120.1 2 0 1 1 1
vector 835  Floatingscenario.manager.anchorZone[278]  infect  ETV
835	561948 12 2 2 0.1 0.1 1 1 1 1 1
vector 837  Floatingscenario.manager.anchorZone[279]  copies  ETV
837	561978 30 2 19292 0.1 120.1 2 0 1 1 1
vector 838  Floatingscenario.manager.anchorZone[279]  infect  ETV
838	562008 12 2 2 0.1 0.1 1 1 1 1 1
vector 867  Floatingscenario.manager.anchorZone[289]  copies  ETV
867	562558 30 2 19292 0.1 120.1 2 0 1 1 1
vector 868  Floatingscenario.manager.anchorZone[289]  infect  ETV
868	562588 12 2 2 0.1 0.1 1 1 1 1 1
vector 870  Floatingscenario.manager.anchorZone[290]  copies  ETV
870	562618 30 2 19292 0.1 120.1 2 0 1 1 1
vector 871  Floatingscenario.manager.anchorZone[290]  infect  ETV
871	562648 12 2 2 0.1 0.1 1 1 1 1 1
vector 903  Floatingscenario.node[0].mobility  speed  ETV
903	664473 53184 3 72418 0.2 168.8 1687 6.0294455703256e-14 27.779896241473 13128.966851397 242022.53693949
903	22986628 24964 72419 365217 168.9 240.2 714 1.1255579919535e-13 27.778023842725 4997.8100384698 127133.07423234
903	46796769 17025 365218 1034409 240.3 296.5 563 0 0.24910993126651 0.24910993130784 0.062055757855605
903	70125079 674 1034410 1110653 296.6 299.9 34 0 0 0 0
vector 904  Floatingscenario.node[0].mobility  acceleration  ETV
904	717657 53802 4 72418 0.3 168.8 1686 -4.5 2.6 144.46015531754 3608.4353796026
904	23011592 25580 72419 365217 168.9 240.2 714 -4.5 1.0916148324497 -277.67899381644 943.42921189742
904	46813794 17211 365218 1034409 240.3 296.5 563 -2.4910993126651 2.491099312664 -1.140421090895e-12 12.411151571116
904	70124405 674 1034410 1110653 296.6 299.9 34 0 0 0 0
vector 905  Floatingscenario.node[0].mobility  co2emission  ETV
905	771459 45322 4 72418 0.3 168.8 1686 -0.78632570844337 19.689454205709 4918.6408151901 32032.385686046
905	23037172 19580 72419 365217 168.9 240.2 714 -0.68580728078642 11.737884074297 1284.9287300084 5325.3993147658
905	46831005 12509 365218 1034409 240.3 296.5 563 0.973 1.2715728675741 597.14357286758 635.84141355755
905	70123595 810 1034410 1110653 296.6 299.9 34 0.973 0.973 33.082 32.188786
vector 910  Floatingscenario.node[1].mobility  posx  ETV
910	816781 50039 12 72418 1.1 168.8 1678 2450.5898168295 3482.931566886 4727248.307257 13603988660.982
910	23057008 22806 72419 365217 168.9 240.2 714 3482.931566886 3505.0337081546 2490505.1683378 8687165805.3378
910	46843514 18446 365218 1034409 240.3 296.5 563 3491.3230965835 3718.0836411521 1977972.1921088 6950526909.6843
910	70132473 1147 1034410 1110653 296.6 299.9 34 3720.8237569704 3805.0718842564 127999.4608329 481900077.14887
vector 911  Floatingscenario.node[1].mobility  posy  ETV
911	866820 50372 12 72418 1.1 168.8 1678 560.02272236609 1457.236935307 1476222.6108366 1514404203.1798
911	23079814 22810 72419 365217 168.9 240.2 714 1457.236935307 1479.7597561678 1046646.4394724 1534348090.0004
911	46861960 18456 365218 1034409 240.3 296.5 563 1450.0170808343 1486.2650523605 832260.80056332 1230321109.6237
911	70131326 1147 1034410 1110653 296.6 299.9 34 1435.4155309124 1449.5800486337 49041.581343343 70738163.346594
vector 396  Floatingscenario.manager.anchorZone[132]  copies  ETV
396	538412 31 12 26822 1.1 121.1 2 0 1 1 1
vector 397  Floatingscenario.manager.anchorZone[132]  infect  ETV
397	538443 13 12 12 1.1 1.1 1 1 1 1 1
vector 399  Floatingscenario.manager.anchorZone[133]  copies  ETV
399	538474 31 12 26822 1.1 121.1 2 0 1 1 1
vector 400  Floatingscenario.manager.anchorZone[133]  infect  ETV
400	538505 13 12 12 1.1 1.1 1 1 1 1 1
vector 432  Floatingscenario.manager.anchorZone[144]  copies  ETV
432	542035 31 12 26822 1.1 121.1 2 0 1 1 1
vector 433  Floatingscenario.manager.anchorZone[144]  infect  ETV
433	542066 13 12 12 1.1 1.1 1 1 1 1 1
vector 435  Floatingscenario.manager.anchorZone[145]  copies  ETV
435	542097 31 12 26822 1.1 121.1 2 0 1 1 1
vector 436  Floatingscenario.manager.anchorZone[145]  infect  ETV
436	542128 13 12 12 1.1 1.1 1 1 1 1 1
vector 438  Floatingscenario.manager.anchorZone[146]  copies  ETV
438	542159 31 12 26822 1.1 121.1 2 0 1 1 1
vector 439  Floatingscenario.manager.anchorZone[146]  infect  ETV
439	542190 13 12 12 1.1 1.1 1 1 1 1 1
vector 441  Floatingscenario.manager.anchorZone[147]  copies  ETV
441	542221 31 12 26822 1.1 121.1 2 0 1 1 1
vector 442  Floatingscenario.manager.anchorZone[147]  infect  ETV
442	542252 13 12 12 1.1 1.1 1 1 1 1 1
vector 471  Floatingscenario.manager.anchorZone[157]  copies  ETV
471	544093 165 12 45953 1.1 152.1 7 1 4 18 52
471	22926978 135 72432 176135 170.1 211.134397229673 5 2 6 20 90
471	46742938 252 465240 942059 256.813682091041 291.1 9 7 13 93 993
471	71779876 32 1089504 1089504 298.434356239069 298.434356239069 1 12 12 12 144
vector 472  Floatingscenario.manager.anchorZone[157]  infect  ETV
472	544258 129 12 34942 1.1 129.720007342889 5 1 5 15 55
472	22927113 117 80487 176135 177.932579232712 211.134397229673 4 6 9 30 230
472	46743190 215 465240 791853 256.813682091041 280.612499961421 7 10 16 91 1211
472	71779908 32 1089504 1089504 298.434356239069 298.434356239069 1 17 17 17 289
vector 474  Floatingscenario.manager.anchorZone[158]  copies  ETV
474	544423 322 12 47584 1.1 156.921926036171 12 1 10 60 398
474	22927248 245 80074 321361 177.931586940948 233.333350175562 8 11 18 116 1724
474	46743443 492 366195 1020982 242.724893247108 294.949257240247 17 19 29 427 10885
474	71779940 64 1071579 1096394 298.428301778817 298.520677578347 2 30 31 61 1861
vector 475  Floatingscenario.manager.anchorZone[158]  infect  ETV
475	544745 305 12 47584 1.1 156.921926036171 11 1 11 66 506
475	22927493 245 80074 321361 177.931586940948 233.333350175562 8 12 19 124 1964
475	46743935 432 366195 1020982 242.724893247108 294.949257240247 14 20 33 371 10059
475	71780004 64 1071579 1096394 298.428301778817 298.520677578347 2 34 35 69 2381
vector 477  Floatingscenario.manager.anchorZone[159]  copies  ETV
477	545068 322 12 47584 1.1 156.921926036171 12 1 10 60 398
477	22927738 276 80074 321361 177.931586940948 233.333350175562 9 11 19 135 2085
477	46744424 523 366195 1020982 242.724893247108 294.949257240247 18 20 31 477 12833
477	71780068 64 1071579 1096394 298.428301778817 298.520677578347 2 32 33 65 2113
vector 478  Floatingscenario.manager.anchorZone[159]  infect  ETV
478	545390 305 12 47584 1.1 156.921926036171 11 1 11 66 506
478	22928014 276 80074 321361 177.931586940948 233.333350175562 9 12 20 144 2364
478	46744947 463 366195 1020982 242.724893247108 294.949257240247 15 21 35 420 12040
478	71780132 64 1071579 1096394 298.428301778817 298.520677578347 2 36 37 73 2665
vector 480  Floatingscenario.manager.anchorZone[160]  copies  ETV
480	545713 322 12 47584 1.1 156.921926036171 12 1 10 60 398
480	22928290 245 80074 321361 177.931586940948 233.333350175562 8 11 18 116 1724
480	46745467 523 366195 1020982 242.724893247108 294.949257240247 18 19 30 459 11897
480	71780196 64 1071579 1096394 298.428301778817 298.520677578347 2 31 32 63 1985
vector 481  Floatingscenario.manager.anchorZone[160]  infect  ETV
481	546035 305 12 47584 1.1 156.921926036171 11 1 11 66 506
481	22928535 245 80074 321361 177.931586940948 233.333350175562 8 12 19 124 1964
481	46745990 463 366195 1020982 242.724893247108 294.949257240247 15 20 34 405 11215
481	71780260 64 1071579 1096394 298.428301778817 298.520677578347 2 35 36 71 2521
vector 483  Floatingscenario.manager.anchorZone[161]  copies  ETV
483	546358 31 12 26822 1.1 121.1 2 0 1 1 1
vector 484  Floatingscenario.manager.anchorZone[161]  infect  ETV
484	546389 13 12 12 1.1 1.1 1 1 1 1 1
vector 510  Floatingscenario.manager.anchorZone[170]  copies  ETV
510	547458 194 12 72399 1.1 167.1 8 1 5 24 84
510	22929312 245 72432 365214 170.1 240.1 9 3 10 61 461
510	46747056 254 391242 942872 245.30511424985 293.1 9 10 16 120 1632
vector 511  Floatingscenario.manager.anchorZone[170]  infect  ETV
511	547652 158 12 39388 1.1 143.427516922072 6 1 6 21 91
511	22929557 211 80074 321361 177.931586940948 233.333350175562 7 7 13 70 728
511	46747310 214 391242 791853 245.30511424985 280.612499961421 7 14 20 119 2051
vector 513  Floatingscenario.manager.anchorZone[171]  copies  ETV
513	547846 339 12 47584 1.1 156.921926036171 13 1 9 67 443
513	22929805 293 72432 321361 170.1 233.333350175562 10 8 17 125 1645
513	46747562 483 366195 1020982 242.724893247108 294.949257240247 16 18 31 402 10372
513	71780427 64 1071579 1096394 298.428301778817 298.520677578347 2 32 33 65 2113
vector 514  Floatingscenario.manager.anchorZone[171]  infect  ETV
514	548185 305 12 47584 1.1 156.921926036171 11 1 11 66 506
514	22930098 276 80074 321361 177.931586940948 233.333350175562 9 12 20 144 2364
514	46748045 463 366195 1020982 242.724893247108 294.949257240247 15 21 35 420 12040
514	71780491 64 1071579 1096394 298.428301778817 298.520677578347 2 36 37 73 2665
vector 516  Floatingscenario.manager.anchorZone[172]  copies  ETV
516	548526 322 12 47584 1.1 156.921926036171 12 1 10 60 398
516	22930392 294 72432 321361 170.1 233.333350175562 10 9 18 135 1905
516	46748527 503 366195 1020982 242.724893247108 294.949257240247 17 19 31 437 11453
516	71780555 64 1071579 1096394 298.428301778817 298.520677578347 2 32 33 65 2113
vector 517  Floatingscenario.manager.anchorZone[172]  infect  ETV
517	548848 305 12 47584 1.1 156.921926036171 11 1 11 66 506
517	22930686 276 80074 321361 177.931586940948 233.333350175562 9 12 20 144 2364
517	46749030 463 366195 1020982 242.724893247108 294.949257240247 15 21 35 420 12040
517	71780619 64 1071579 1096394 298.428301778817 298.520677578347 2 36 37 73 2665
vector 519  Floatingscenario.manager.anchorZone[173]  copies  ETV
519	549171 339 12 47584 1.1 156.921926036171 13 1 9 67 443
519	22930980 324 72432 321361 170.1 233.333350175562 11 8 18 143 1969
519	46749531 513 366195 1020982 242.724893247108 294.949257240247 17 19 33 453 12405
519	71780683 64 1071579 1096394 298.428301778817 298.520677578347 2 34 35 69 2381
vector 520  Floatingscenario.manager.anchorZone[173]  infect  ETV
520	549510 305 12 47584 1.1 156.921926036171 11 1 11 66 506
520	22931304 307 80074 321361 177.931586940948 233.333350175562 10 12 21 165 2805
520	46750044 493 366195 1020982 242.724893247108 294.949257240247 16 22 37 472 14264
520	71780747 64 1071579 1096394 298.428301778817 298.520677578347 2 38 39 77 2965
vector 522  Floatingscenario.manager.anchorZone[174]  copies  ETV
522	549851 357 12 72399 1.1 167.1 14 1 9 75 507
522	22931629 322 72432 328842 170.1 235.12440566186 11 7 17 132 1694
522	46750556 462 366195 1020982 242.724893247108 294.949257240247 15 18 32 375 9655
522	71780811 85 1071579 1110643 298.428301778817 299.1 3 33 34 100 3334
vector 523  Floatingscenario.manager.anchorZone[174]  infect  ETV
523	550208 305 12 47584 1.1 156.921926036171 11 1 11 66 506
523	22931951 306 80074 328842 177.931586940948 235.12440566186 10 12 21 165 2805
523	46751018 462 366195 1020982 242.724893247108 294.949257240247 15 22 36 435 12895
523	71780896 64 1071579 1096394 298.428301778817 298.520677578347 2 37 38 75 2813
vector 549  Floatingscenario.manager.anchorZone[183]  copies  ETV
549	551325 136 12 72399 1.1 167.1 6 1 3 13 31
549	22932427 85 72432 365214 170.1 240.1 4 0 2 4 6
vector 550  Floatingscenario.manager.anchorZone[183]  infect  ETV
550	551461 100 12 34942 1.1 129.720007342889 4 1 4 10 30
550	22932512 29 80487 80487 177.932579232712 177.932579232712 1 5 5 5 25
vector 552  Floatingscenario.manager.anchorZone[184]  copies  ETV
552	551597 310 12 72399 1.1 167.1 12 1 9 58 362
552	22932597 312 72432 365214 170.1 240.1 11 7 16 130 1630
552	46751632 512 366195 1020982 242.724893247108 294.949257240247 18 16 25 379 8089
552	71780980 32 1096394 1096394 298.520677578347 298.520677578347 1 26 26 26 676
vector 553  Floatingscenario.manager.anchorZone[184]  infect  ETV
553	551907 275 12 47584 1.1 156.921926036171 10 1 10 55 385
553	22932909 276 80074 321361 177.931586940948 233.333350175562 9 11 19 135 2085
553	46752144 432 366195 1020982 242.724893247108 294.949257240247 14 20 33 371 10059
553	71781012 32 1096394 1096394 298.520677578347 298.520677578347 1 34 34 34 1156
vector 555  Floatingscenario.manager.anchorZone[185]  copies  ETV
555	552218 357 12 72399 1.1 167.1 14 1 9 75 507
555	22933222 323 72432 321361 170.1 233.333350175562 11 7 17 132 1694
555	46752652 575 366195 1020982 242.724893247108 294.949257240247 19 18 34 507 14013
555	71781044 64 1071579 1096394 298.428301778817 298.520677578347 2 35 36 71 2521
vector 556  Floatingscenario.manager.anchorZone[185]  infect  ETV
556	552575 305 12 47584 1.1 156.921926036171 11 1 11 66 506
556	22933545 307 80074 321361 177.931586940948 233.333350175562 10 12 21 165 2805
556	46753227 555 366195 1020982 242.724893247108 294.949257240247 18 22 39 549 17229
556	71781108 64 1071579 1096394 298.428301778817 298.520677578347 2 40 41 81 3281
vector 558  Floatingscenario.manager.anchorZone[186]  copies  ETV
558	552934 293 12 72399 1.1 167.1 11 1 10 64 466
558	22933870 374 72432 365214 170.1 240.1 13 8 19 180 2654
558	46753801 531 365226 1020982 241.1 294.949257240247 19 17 27 438 10250
558	71781172 53 1096394 1110643 298.520677578347 299.1 2 27 28 55 1513
vector 559  Floatingscenario.manager.anchorZone[186]  infect  ETV
559	553227 275 12 47584 1.1 156.921926036171 10 1 10 55 385
559	22934244 337 80074 328842 177.931586940948 235.12440566186 11 11 21 176 2926
559	46754332 431 366195 1020982 242.724893247108 294.949257240247 14 22 35 399 11599
559	71781225 32 1096394 1096394 298.520677578347 298.520677578347 1 36 36 36 1296
vector 912  Floatingscenario.node[1].mobility  speed  ETV
912	917192 53503 13 72418 1.2 168.8 1677 1.4663507926766e-14 27.779942976178 13881.320141063 312087.74062483
912	23102624 25089 72419 365217 168.9 240.2 714 1.466143946453e-14 7.3082301490412 432.29553737536 1998.9309072351
912	46880416 19650 365218 1034409 240.3 296.5 563 0 27.777948903888 2353.7032170513 45470.393987751
912	70130181 1145 1034410 1110653 296.6 299.9 34 21.556902574838 27.757393434581 876.12278859572 22725.734054517
vector 913  Floatingscenario.node[1].mobility  acceleration  ETV
913	970695 54298 14 72418 1.3 168.8 1676 -4.5 2.6 -86.152440115458 3382.2065419382
913	23127713 25053 72419 365217 168.9 240.2 714 -4.5 2.6 0.004847200798102 2343.7376876465
913	46900066 19881 365218 1034409 240.3 296.5 563 -3.4032559819543 2.6 277.48062235944 678.50163286671
913	70128992 1189 1034410 1110653 296.6 299.9 34 -3.6389162481242 1.03846315681 -61.916443811874 190.29123002189
vector 914  Floatingscenario.node[1].mobility  co2emission  ETV
914	1024993 43932 14 72418 1.3 168.8 1676 -0.75217181241989 19.365417011688 4723.2541958129 31828.232567344
914	23152766 17782 72419 365217 168.9 240.2 714 0.973 5.3399023775458 933.91860832466 1576.9456703779
914	46919947 16116 365218 1034409 240.3 296.5 563 0.114597408567 20.257199234407 1781.8909026466 15439.884201278
914	70128053 939 1034410 1110653 296.6 299.9 34 0.96294730314878 11.371493198362 73.599492631423 341.23858191759
vector 708  Floatingscenario.manager.anchorZone[236]  copies  ETV
708	558036 42 19 45939 1.8 151.505064102124 2 1 2 3 5
708	22936258 19 365214 365214 240.1 240.1 1 1 1 1 1
708	46757087 19 523856 523856 260.1 260.1 1 0 0 0 0
vector 709  Floatingscenario.manager.anchorZone[236]  infect  ETV
709	558078 42 19 45939 1.8 151.505064102124 2 1 2 3 5
vector 919  Floatingscenario.node[2].mobility  posx  ETV
919	1069700 50039 22 72418 2.1 168.8 1668 1004.7049869454 1863.1167081167 2396374.023444 3618374389.3979
919	23170548 23181 72419 365217 168.9 240.2 714 1863.1167338841 1930.3228196221 1342164.713754 2523407813.893
919	46936063 18426 365218 1034409 240.3 296.5 563 1895.9257933346 1919.3564665221 1074203.0215908 2049604784.8913
919	70751597 1147 1034410 1110653 296.6 299.9 34 1895.3591164094 1896.4181632042 64457.545275472 122199272.311
vector 920  Floatingscenario.node[2].mobility  posy  ETV
920	1119739 50102 22 72418 2.1 168.8 1668 1013.4021275389 1474.6195756624 1917224.5818239 2239148619.5534
920	23193729 22964 72419 365217 168.9 240.2 714 925.49793368158 1013.4021232551 714022.54341562 714601143.8144
920	46954489 18426 365218 1034409 240.3 296.5 563 758.81090042112 925.49650257187 479336.6825975 409339550.44418
920	70750454 1143 1034410 1110653 296.6 299.9 34 751.85148679575 758.50575506831 25659.306366058 19364840.245839
vector 135  Floatingscenario.manager.anchorZone[45]  copies  ETV
135	523246 31 22 26833 2.1 122.1 2 0 1 1 1
vector 136  Floatingscenario.manager.anchorZone[45]  infect  ETV
136	523277 13 22 22 2.1 2.1 1 1 1 1 1
vector 138  Floatingscenario.manager.anchorZone[46]  copies  ETV
138	523308 31 22 26833 2.1 122.1 2 0 1 1 1
vector 139  Floatingscenario.manager.anchorZone[46]  infect  ETV
139	523339 13 22 22 2.1 2.1 1 1 1 1 1
vector 141  Floatingscenario.manager.anchorZone[47]  copies  ETV
141	523370 31 22 26833 2.1 122.1 2 0 1 1 1
vector 142  Floatingscenario.manager.anchorZone[47]  infect  ETV
142	523401 13 22 22 2.1 2.1 1 1 1 1 1
vector 174  Floatingscenario.manager.anchorZone[58]  copies  ETV
174	523944 31 22 26833 2.1 122.1 2 0 1 1 1
vector 175  Floatingscenario.manager.anchorZone[58]  infect  ETV
175	523975 13 22 22 2.1 2.1 1 1 1 1 1
vector 177  Floatingscenario.manager.anchorZone[59]  copies  ETV
177	524006 31 22 26833 2.1 122.1 2 0 1 1 1
vector 178  Floatingscenario.manager.anchorZone[59]  infect  ETV
178	524037 13 22 22 2.1 2.1 1 1 1 1 1
vector 180  Floatingscenario.manager.anchorZone[60]  copies  ETV
180	524068 31 22 26833 2.1 122.1 2 0 1 1 1
vector 181  Floatingscenario.manager.anchorZone[60]  infect  ETV
181	524099 13 22 22 2.1 2.1 1 1 1 1 1
vector 183  Floatingscenario.manager.anchorZone[61]  copies  ETV
183	524130 31 22 26833 2.1 122.1 2 0 1 1 1
vector 184  Floatingscenario.manager.anchorZone[61]  infect  ETV
184	524161 13 22 22 2.1 2.1 1 1 1 1 1
vector 210  Floatingscenario.manager.anchorZone[70]  copies  ETV
210	524510 117 22 64203 2.1 163.606333386888 5 1 3 9 19
210	22905197 187 72454 330405 172.1 237.809751886095 7 2 6 25 103
210	46719009 49 555431 942861 267.345763609109 292.1 2 6 7 13 85
vector 211  Floatingscenario.manager.anchorZone[70]  infect  ETV
211	524627 99 22 64203 2.1 163.606333386888 4 1 4 10 30
211	22905384 150 113867 330405 192.306173561456 237.809751886095 5 5 9 35 255
211	46719058 31 555431 555431 267.345763609109 267.345763609109 1 10 10 10 100
vector 213  Floatingscenario.manager.anchorZone[71]  copies  ETV
213	524744 117 22 64203 2.1 163.606333386888 5 1 3 9 19
213	22905571 187 72454 330405 172.1 237.809751886095 7 2 6 25 103
213	46719108 49 805232 942861 281.518542902779 292.1 2 6 7 13 85
vector 214  Floatingscenario.manager.anchorZone[71]  infect  ETV
214	524861 99 22 64203 2.1 163.606333386888 4 1 4 10 30
214	22905758 150 113867 330405 192.306173561456 237.809751886095 5 5 9 35 255
214	46719157 31 805232 805232 281.518542902779 281.518542902779 1 10 10 10 100
vector 216  Floatingscenario.manager.anchorZone[72]  copies  ETV
216	524978 88 22 28568 2.1 122.753274443891 4 1 2 6 10
216	22905945 37 72454 191782 172.1 212.1 2 0 1 1 1
vector 217  Floatingscenario.manager.anchorZone[72]  infect  ETV
217	525066 70 22 28568 2.1 122.753274443891 3 1 3 6 14
vector 219  Floatingscenario.manager.anchorZone[73]  copies  ETV
219	525154 31 22 26833 2.1 122.1 2 0 1 1 1
vector 220  Floatingscenario.manager.anchorZone[73]  infect  ETV
220	525185 13 22 22 2.1 2.1 1 1 1 1 1
vector 222  Floatingscenario.manager.anchorZone[74]  copies  ETV
222	525216 31 22 26833 2.1 122.1 2 0 1 1 1
vector 223  Floatingscenario.manager.anchorZone[74]  infect  ETV
223	525247 13 22 22 2.1 2.1 1 1 1 1 1
vector 252  Floatingscenario.manager.anchorZone[84]  copies  ETV
252	526278 117 22 64203 2.1 163.606333386888 5 1 3 9 19
252	22906888 246 72454 349650 172.1 238.945090203117 9 2 8 42 228
252	46720081 264 423859 960787 255.0380184915 293.355814997558 9 9 15 113 1457
vector 253  Floatingscenario.manager.anchorZone[84]  infect  ETV
253	526395 99 22 64203 2.1 163.606333386888 4 1 4 10 30
253	22907134 211 113867 349650 192.306173561456 238.945090203117 7 5 11 56 476
253	46720345 245 423859 960787 255.0380184915 293.355814997558 8 12 19 124 1964
vector 255  Floatingscenario.manager.anchorZone[85]  copies  ETV
255	526512 88 22 28568 2.1 122.753274443891 4 1 2 6 10
255	22907382 206 72454 330561 172.1 237.810702886545 8 1 4 16 40
255	46720609 150 518603 960787 259.710500315665 293.355814997558 5 5 9 35 255
vector 256  Floatingscenario.manager.anchorZone[85]  infect  ETV
256	526600 70 22 28568 2.1 122.753274443891 3 1 3 6 14
256	22907588 150 133453 330561 208.945756314579 237.810702886545 5 4 8 30 190
256	46720759 154 518603 960787 259.710500315665 293.355814997558 5 9 13 55 615
vector 258  Floatingscenario.manager.anchorZone[86]  copies  ETV
258	526688 31 22 26833 2.1 122.1 2 0 1 1 1
vector 259  Floatingscenario.manager.anchorZone[86]  infect  ETV
259	526719 13 22 22 2.1 2.1 1 1 1 1 1
vector 261  Floatingscenario.manager.anchorZone[87]  copies  ETV
261	526750 31 22 26833 2.1 122.1 2 0 1 1 1
vector 262  Floatingscenario.manager.anchorZone[87]  infect  ETV
262	526781 13 22 22 2.1 2.1 1 1 1 1 1
vector 291  Floatingscenario.manager.anchorZone[97]  copies  ETV
291	528703 243 22 66258 2.1 164.515738378583 9 1 9 45 285
291	22909649 421 83060 349650 180.318896714052 238.945090203117 14 10 21 219 3571
291	46723151 458 365238 1034403 242.1 296.1 17 19 27 392 9160
vector 292  Floatingscenario.manager.anchorZone[97]  infect  ETV
292	528946 243 22 66258 2.1 164.515738378583 9 1 9 45 285
292	22910070 401 83060 349650 180.318896714052 238.945090203117 13 10 22 208 3510
292	46723609 337 398741 944058 248.317020058698 293.351548972825 11 23 33 308 8734
vector 294  Floatingscenario.manager.anchorZone[98]  copies  ETV
294	529189 128 22 30394 2.1 126.139623408837 5 1 5 15 55
294	22910490 357 73376 349650 176.1 238.945090203117 13 4 12 106 926
294	46724061 376 365238 960787 242.1 293.355814997558 14 10 16 195 2775
vector 295  Floatingscenario.manager.anchorZone[98]  infect  ETV
295	529317 128 22 30394 2.1 126.139623408837 5 1 5 15 55
295	22910847 304 83060 349650 180.318896714052 238.945090203117 10 6 15 105 1185
295	46724437 276 398741 960787 248.317020058698 293.355814997558 9 16 24 180 3660
vector 297  Floatingscenario.manager.anchorZone[99]  copies  ETV
297	529445 31 22 26833 2.1 122.1 2 0 1 1 1
vector 298  Floatingscenario.manager.anchorZone[99]  infect  ETV
298	529476 13 22 22 2.1 2.1 1 1 1 1 1
vector 921  Floatingscenario.node[2].mobility  speed  ETV
921	1169841 51860 23 72418 2.2 168.8 1667 5.889002670763e-14 22.219776994304 12332.145693114 188770.64683912
921	23216693 24886 72419 365217 168.9 240.2 714 5.8588975953735e-14 15.076126857778 1447.9070391546 11699.518918305
921	46972915 19104 365218 1034409 240.3 296.5 563 4.3270338359171e-06 11.806457537101 1685.3775724962 10715.900434283
921	70749306 1148 1034410 1110653 296.6 299.9 34 1.1447675178434 2.9850574712908 68.520748865949 148.55199443709
vector 922  Floatingscenario.node[2].mobility  acceleration  ETV
922	1221701 52741 24 72418 2.3 168.8 1666 -4.5 2.6 -137.75113187145 3843.3894010961
922	23241579 25300 72419 365217 168.9 240.2 714 -3.867344096413 2.6 0.14216785275871 840.22203253639
922	46992019 19396 365218 1034409 240.3 296.5 563 -3.8888888888889 2.6 30.751881733171 1270.3603048211
922	70748099 1207 1034410 1110653 296.6 299.9 34 -1.5559322636011 0.39854161406294 -19.448986568629 17.880481522065
vector 923  Floatingscenario.node[2].mobility  co2emission  ETV
923	1274442 44469 24 72418 2.3 168.8 1666 0.32987988944856 15.985684277187 4130.8411595914 20300.503764658
923	23266879 20166 72419 365217 168.9 240.2 714 0.973 9.4691147046224 1161.1072496485 3561.2779226952
923	47011415 16746 365218 1034409 240.3 296.5 563 0.973 8.6756040846344 1031.6977964276 3135.7842491369
923	70747231 868 1034410 1110653 296.6 299.9 34 0.973 1.496721508412 35.098388262122 36.898100650925
vector 928  Floatingscenario.node[3].mobility  posx  ETV
928	1320185 49883 32 72418 3.1 168.8 1658 834.2036495538 1877.9156112302 2457426.2881086 3888842508.2325
928	23287045 23189 72419 365217 168.9 240.2 714 1877.915612347 1930.3297391715 1351012.9819613 2556617631.3987
928	47028161 18419 365218 1034409 240.3 296.5 563 1885.0079692409 1918.2200796137 1072793.7881183 2044245567.1278
928	71387981 1146 1034410 1110653 296.6 299.9 34 1884.8314421726 1884.9999632027 64087.087844731 120798671.51247
vector 929  Floatingscenario.node[3].mobility  posy  ETV
929	1370068 49840 32 72418 3.1 168.8 1658 775.49147565316 1170.5205013896 1707486.1134995 1770758579.0273
929	23310234 23185 72419 365217 168.9 240.2 714 918.06862929831 1010.9417912673 707558.02275637 702064837.96084