file 276333374 1403968551                                       
version 2
run nodebug-0-20140628-18:02:18-4157
attr configname nodebug
attr datetime 20140628-18:02:18
attr experiment nodebug
attr inifile omnetpp.ini
attr iterationvars ""
attr iterationvars2 $repetition=0
attr measurement ""
attr network Floatingscenario
attr processid 4157
attr repetition 0
attr replication #0
attr resultdir results
attr runnumber 0
attr seedset 0
vector 901  Floatingscenario.node[0].mobility  posx  ETV
901	515919 50782 2 82475 0.1 169.1 1691 2800.9595059214 3941.1266026287 6105874.4068199 22144972709.102
901	23066268 23393 82476 343140 169.2 240.9 718 2313.3677231597 2798.2229354171 1705162.2820156 4060887120.4677
901	46932814 18465 343141 799435 241 297.2 563 2313.3431425754 2313.3677231597 1302420.8416356 3012966338.8485
901	70678300 16052 799436 1393952 297.3 345 478 2038.3799413602 2313.3431425754 1044779.5203168 2290514376.2148
901	95301682 14491 1393955 2050478 345.1 387.9 429 2038.3798791615 2038.3799353279 874464.968738 1782491798.4848
901	119737451 13168 2050479 2391179 388 426.9 390 1912.9643910789 2038.3798791615 789932.65709783 1600304534.1763
901	144071590 12032 2391180 2890367 427 462.6 357 1704.0313397934 1911.0935169866 650785.32238416 1187600849.51
901	168389840 11319 2890368 3569740 462.7 496.2 336 1334.0994095364 1702.9302683714 509340.3250377 776205976.39506
901	192945671 10754 3569741 4119273 496.3 528.1 319 1034.6935648788 1333.3676232046 389528.55428715 478284676.16401
901	217162746 540 4119274 4135427 528.2 529.7 16 1012.884506986 1033.3298555864 16369.656940332 16748486.306268
vector 902  Floatingscenario.node[0].mobility  posy  ETV
902	566701 50855 2 82475 0.1 169.1 1691 417.87650219912 789.65749844242 961723.19637982 565113269.32474
902	23089661 23387 82476 343140 169.2 240.9 718 534.07315461613 614.46750622651 433838.37034868 262452313.51006
902	46951279 18465 343141 799435 241 297.2 563 614.46750622651 614.47155006395 345946.05925522 212573136.61712
902	70694352 16041 799436 1393952 297.3 345 478 611.21990933796 658.62096065962 303170.61741838 192472462.95928
902	95316173 14489 1393955 2050478 345.1 387.9 429 658.62096166664 658.62097104289 282548.39648096 186092299.19338
902	119750619 13166 2050479 2391179 388 426.9 390 658.62097104289 679.20743818542 257691.72956184 170277974.02136
902	144083622 12020 2391180 2890367 427 462.6 357 679.5138641404 823.07874884724 278851.43104548 218416556.69579
902	168401159 11311 2890368 3569740 462.7 496.2 336 823.25735822763 880.30712181958 286420.95580474 244252345.14054
902	192956425 10746 3569741 4119273 496.3 528.1 319 786.4832293367 880.59927183335 259935.25461183 212011083.77044
902	217162205 541 4119274 4135427 528.2 529.7 16 829.41835519369 832.82742574741 13297.975911858 11052277.781631
vector 753  Floatingscenario.manager.anchorZone[251]  copies  ETV
753	514515 30 2 25893 0.1 120.1 2 0 1 1 1
vector 754  Floatingscenario.manager.anchorZone[251]  infect  ETV
754	514545 12 2 2 0.1 0.1 1 1 1 1 1
vector 789  Floatingscenario.manager.anchorZone[263]  copies  ETV
789	514963 30 2 25893 0.1 120.1 2 0 1 1 1
vector 790  Floatingscenario.manager.anchorZone[263]  infect  ETV
790	514993 12 2 2 0.1 0.1 1 1 1 1 1
vector 792  Floatingscenario.manager.anchorZone[264]  copies  ETV
792	515023 30 2 25893 0.1 120.1 2 0 1 1 1
vector 793  Floatingscenario.manager.anchorZone[264]  infect  ETV
793	515053 12 2 2 0.1 0.1 1 1 1 1 1
vector 903  Floatingscenario.node[0].mobility  speed  ETV
903	617556 53383 3 82475 0.2 169.1 1690 6.0294455703256e-14 27.779896241473 13212.139042617 244328.40935276
903	23113048 25193 82476 343140 169.2 240.9 718 1.1255579919535e-13 27.778023842725 4914.6378472499 124827.20181907
903	46969744 16877 343141 799435 241 297.2 563 0 0.24910993126651 0.24910993130704 0.062055757855605
903	70710393 14383 799436 1393952 297.3 345 478 0 25.383594268207 2784.9854466144 45150.309244389
903	95330662 16165 1393955 2050478 345.1 387.9 429 5.8550110178443e-14 5.4156477636632e-05 0.00056945297306057 1.6475846503513e-08
903	119763785 14218 2050479 2391179 388 426.9 390 5.853755740762e-14 20.495003441074 1289.8893443556 18504.399520924
903	144095642 12046 2391180 2890367 427 462.6 357 1.5828858445923 19.619213855358 3293.482914582 35999.014222027
903	168412470 11321 2890368 3569740 462.7 496.2 336 3.4291574111794 11.179428253709 3517.1061097944 37867.438422513
903	192967171 10743 3569741 4119273 496.3 528.1 319 3.4576754231704 16.763265471553 3767.8771526939 48061.512307183
903	217161665 540 4119274 4135427 528.2 529.7 16 13.76343399446 13.875771306574 221.05910108949 3054.2184040383
vector 904  Floatingscenario.node[0].mobility  acceleration  ETV
904	670939 54005 4 82475 0.3 169.1 1689 -4.5 2.6 144.30406809808 3608.9560353458
904	23138241 25806 82476 343140 169.2 240.9 718 -4.5 1.0916148324497 -277.52290659698 942.90855615428
904	46986621 17062 343141 799435 241 297.2 563 -2.4910993126651 2.491099312664 -1.1270984145995e-12 12.411151571116
904	70724776 14601 799436 1393952 297.3 345 478 -4.2246571865093 2.5988149182617 0.00061160040238271 1351.9148595904
904	95346827 16468 1393955 2050478 345.1 387.9 429 -7.0035625620157e-05 2.829922102708e-14 -0.00061160040137205 1.9591888779973e-08
904	119778003 14296 2050479 2391179 388 426.9 390 -4.5 2.5930949642789 189.59082725968 508.30753521631
904	144107688 12173 2391180 2890367 427 462.6 357 -4.5 2.6 -78.049595138386 1295.0127730349
904	168423791 11699 2890368 3569740 462.7 496.2 336 -4.2679292727238 2.6 -31.791406611536 412.48257402359
904	192977914 10836 3569741 4119273 496.3 528.1 319 -4.5 2.6 58.507578334163 982.24649352976
904	217161099 566 4119274 4135427 528.2 529.7 16 -1.0668634109665 0.99355745667125 -0.48413646183914 5.8401861842193
vector 905  Floatingscenario.node[0].mobility  co2emission  ETV
905	724944 45522 4 82475 0.3 169.1 1689 -0.78632570844337 19.689454205709 4930.8506813652 32105.049174161
905	23164047 19703 82476 343140 169.2 240.9 718 -0.68580728078642 11.737884074297 1280.4888638334 5261.360526651
905	47003683 12494 343141 799435 241 297.2 563 0.973 1.2715728675741 596.18457286758 633.84381655755
905	70739377 13421 799436 1393952 297.3 345 478 0.973 18.04836173843 1424.6990245276 11680.328217957
905	95363295 11675 1393955 2050478 345.1 387.9 429 1.11 1.1100026115944 476.19002746614 528.57096097487
905	119792299 10224 2050479 2391179 388 426.9 390 0.973 15.127183517418 1057.0201028307 6689.0428506453
905	144119861 10313 2391180 2890367 427 462.6 357 0.96964378405561 13.3135777023 942.0231699671 4425.7010639226
905	168435490 10093 2890368 3569740 462.7 496.2 336 0.973 6.1242304389146 697.21731820035 1960.9438563915
905	192988750 9736 3569741 4119273 496.3 528.1 319 0.973 12.006004023447 1112.9340872951 6082.7192455096
905	217160628 471 4119274 4135427 528.2 529.7 16 0.973 5.3486832317313 37.043223329721 125.38791537354
vector 910  Floatingscenario.node[1].mobility  posx  ETV
910	770466 50235 12 82475 1.1 169.1 1681 2450.5898168295 3482.931566886 4737697.1019577 13640381097.881
910	23183750 23009 82476 343140 169.2 240.9 718 3482.931566886 3505.0337081546 2504501.2928414 8736138236.2823
910	47016177 18425 343141 799435 241 297.2 563 3491.3230965835 3737.2408830836 1979630.4840828 6962501913.4309
910	70752798 16053 799436 1393952 297.3 345 478 3739.9777625759 3907.5029553893 1860615.6228461 7243035780.7426
vector 911  Floatingscenario.node[1].mobility  posy  ETV
911	820701 50568 12 82475 1.1 169.1 1681 560.02272236609 1457.236935307 1480594.3216426 1520774821.6367
911	23206759 23013 82476 343140 169.2 240.9 718 1457.236935307 1479.7597981009 1052633.0471444 1543305294.6422
911	47034602 18435 343141 799435 241 297.2 563 1446.9616145136 1486.2650523605 832040.38030866 1229675717.6267
911	70768851 16058 799436 1393952 297.3 345 478 1419.5852873592 1446.5250984878 680177.8101295 967882081.97024
911	95124701 12961 1393955 1965998 345.1 383.4 384 1387.8793059952 1421.1555749278 544079.94005294 770919439.61877
vector 474  Floatingscenario.manager.anchorZone[158]  copies  ETV
474	510317 31 12 35270 1.1 121.1 2 0 1 1 1
vector 475  Floatingscenario.manager.anchorZone[158]  infect  ETV
475	510348 13 12 12 1.1 1.1 1 1 1 1 1
vector 477  Floatingscenario.manager.anchorZone[159]  copies  ETV
477	510379 31 12 35270 1.1 121.1 2 0 1 1 1
vector 478  Floatingscenario.manager.anchorZone[159]  infect  ETV
478	510410 13 12 12 1.1 1.1 1 1 1 1 1
vector 516  Floatingscenario.manager.anchorZone[172]  copies  ETV
516	510895 31 12 35270 1.1 121.1 2 0 1 1 1
vector 517  Floatingscenario.manager.anchorZone[172]  infect  ETV
517	510926 13 12 12 1.1 1.1 1 1 1 1 1
vector 912  Floatingscenario.node[1].mobility  speed  ETV
912	871269 53714 13 82475 1.2 169.1 1680 1.4663507926766e-14 27.779942976178 13881.320141063 312087.74062483
912	23229772 25304 82476 343140 169.2 240.9 718 1.466143946453e-14 7.3082301490412 432.29786016004 1998.9309080396
912	47053037 19600 343141 799435 241 297.2 563 0 27.777948903888 2547.66927341 50845.218951747
912	70784909 17256 799436 1393952 297.3 345 478 1.1256708047517e-13 27.746368199396 1694.33286643 30866.532981653
912	95110800 13901 1393955 1965998 345.1 383.4 384 1.1264740362508e-13 27.755370962357 2087.7811889121 39857.59390572
vector 913  Floatingscenario.node[1].mobility  acceleration  ETV
913	924983 54512 14 82475 1.3 169.1 1679 -4.5 2.6 -86.152440115462 3382.2065419382
913	23255076 25274 82476 343140 169.2 240.9 718 -4.5 2.6 0.0023693072560202 2343.7376885517
913	47072637 19832 343141 799435 241 297.2 563 -3.4032559819543 2.6 277.15536467772 680.28501203683
913	70802165 17697 799436 1393952 297.3 345 478 -4.4935061158098 2.509458644921 -277.15773398499 818.31870256769
913	95096779 14021 1393955 1965998 345.1 383.4 384 -1.0210894407239 2.5909208265133 277.08748090402 572.79650928942
vector 914  Floatingscenario.node[1].mobility  co2emission  ETV
914	979495 44120 14 82475 1.3 169.1 1679 -0.75217181241989 19.365417011688 4726.5841958129 31831.928867344
914	23280350 17994 82476 343140 169.2 240.9 718 0.973 5.3399023775458 938.35872017122 1581.8743186792
914	47092469 16095 343141 799435 241 297.2 563 0.114597408567 20.257199234407 1802.8374046285 15628.3300886
914	70819862 13847 799436 1393952 297.3 345 478 0.973 6.5702125391659 548.27713870713 744.63399912549
914	95086468 10311 1393955 1965998 345.1 383.4 384 0.973 20.703765023 1541.3497929359 15140.317898504
vector 919  Floatingscenario.node[2].mobility  posx  ETV
919	1023735 50238 22 82475 2.1 169.1 1671 1004.7049869454 1863.1167810911 2401963.3737176 3628788001.5583
919	23298344 23381 82476 343140 169.2 240.9 718 1863.1168012818 1930.3228196221 1350010.8551635 2538781692.6995
919	47108564 18405 343141 799435 241 297.2 563 1895.9257933346 1919.3554131954 1074041.5128928 2048988526.0203
919	70833709 16029 799436 1393952 297.3 345 478 1886.5726345698 1975.3838241776 910165.22160468 1733301290.5319
919	95374970 14474 1393955 2050478 345.1 387.9 429 1975.5588963347 1977.6220334224 848376.10106864 1677720325.3077
919	119802523 13168 2050479 2391179 388 426.9 390 1977.6220334224 2061.5241303279 774043.37709839 1536384568.5114
919	144130174 12030 2391180 2890367 427 462.6 357 2063.2817316935 2499.9820340387 821328.37275868 1895007801.7614
919	168445583 11324 2890368 3569740 462.7 496.2 336 2502.6727404433 2536.2170036835 847183.27286328 2136078078.6864
919	192998486 10749 3569741 4119273 496.3 528.1 319 2536.5303157694 2751.6104563716 832811.36757704 2175168065.3776
919	217466638 10278 4119274 4695393 528.2 558.6 305 2753.5925513721 3311.1626965801 928655.06118977 2834892407.7359
919	241797150 9801 4695394 5324214 558.7 587.7 291 3313.250605172 3394.5521640956 984995.18271451 3334183546.8612
919	267476339 4119 5324215 5564586 587.8 599.9 122 3394.5521640967 3394.5521641068 414135.36402093 1405804096.17
vector 920  Floatingscenario.node[2].mobility  posy  ETV
920	1073973 50301 22 82475 2.1 169.1 1671 1013.4021154068 1474.6195756624 1920264.7881817 2242229571.1194
920	23321725 23164 82476 343140 169.2 240.9 718 925.49032794075 1013.4021120501 717460.78915934 717515955.33867
920	47126969 18403 343141 799435 241 297.2 563 756.84085924697 925.48961760272 478161.83839406 407362111.90068
920	70849738 16034 799436 1393952 297.3 345 478 679.02744963017 756.57735541618 349741.88490718 256247619.63182
920	95389444 14469 1393955 2050478 345.1 387.9 429 678.66101096247 678.99878689091 291149.46225067 197594428.1013
920	119815691 13168 2050479 2391179 388 426.9 390 664.79944327736 678.66101096247 264222.54669912 179012365.63042
920	144142204 12030 2391180 2890367 427 462.6 357 594.15027136442 664.50603431526 222995.59944031 139436005.88981
920	168456907 11309 2890368 3569740 462.7 496.2 336 606.3677461552 635.53888803795 209205.39736647 130264785.35481
920	193009235 10745 3569741 4119273 496.3 528.1 319 635.81135404041 824.05016044291 223849.87102814 157829154.85345
920	217476916 10279 4119274 4695393 528.2 558.6 305 825.77991822318 1303.1874228059 328558.52279289 359578114.89652
920	241806951 9801 4695394 5324214 558.7 587.7 291 1304.526954523 1381.1263617289 399426.8703598 548340703.8861
920	267472219 4120 5324215 5564586 587.8 599.9 122 1381.1263617298 1381.1263617386 168497.41613202 232716223.30464
vector 216  Floatingscenario.manager.anchorZone[72]  copies  ETV
216	505947 31 22 35281 2.1 122.1 2 0 1 1 1
vector 217  Floatingscenario.manager.anchorZone[72]  infect  ETV
217	505978 13 22 22 2.1 2.1 1 1 1 1 1
vector 219  Floatingscenario.manager.anchorZone[73]  copies  ETV
219	506009 31 22 35281 2.1 122.1 2 0 1 1 1
vector 220  Floatingscenario.manager.anchorZone[73]  infect  ETV
220	506040 13 22 22 2.1 2.1 1 1 1 1 1
vector 921  Floatingscenario.node[2].mobility  speed  ETV
921	1124274 52071 23 82475 2.2 169.1 1670 5.889002670763e-14 22.219776994304 12332.146376356 188770.64683928
921	23344889 25093 82476 343140 169.2 240.9 718 5.8588975953735e-14 15.076126857778 1447.9760085694 11699.519639401
921	47145372 19063 343141 799435 241 297.2 563 4.3270338359171e-06 11.806457537101 1704.8334053886 10770.453124172
921	70865772 16578 799436 1393952 297.3 345 478 5.2604615871381e-05 13.141729425427 1531.9058965067 13043.872507661
921	95403913 15990 1393955 2050478 345.1 387.9 429 5.8552677580642e-14 1.6900868162568 20.907212636588 19.361939643378
921	119828859 14275 2050479 2391179 388 426.9 390 5.8593803744143e-14 17.819764804133 868.08083239563 10206.918623436
921	144154234 12035 2391180 2890367 427 462.6 357 6.915061967698 19.264601148286 4479.3813566044 59101.28249041
921	168468216 11972 2890368 3569740 462.7 496.2 336 9.7376799242596e-08 8.4829209824334 448.73190863521 2055.5015720303
921	193019980 10751 3569741 4119273 496.3 528.1 319 3.3806468360566 26.274945498104 2886.4015081901 37884.513165841
921	217487195 10274 4119274 4695393 528.2 558.6 305 16.424810288584 27.779906417993 7367.8547602559 182183.09140504
921	241816752 10408 4695394 5324214 558.7 587.7 291 1.4117890774104e-08 24.574110262425 1118.6896337846 17008.657020667
921	267467625 4594 5324215 5564586 587.8 599.9 122 5.9187326578304e-14 1.2780565481626e-08 1.3415720836668e-07 9.012959809498e-16
vector 922  Floatingscenario.node[2].mobility  acceleration  ETV
922	1176345 52955 24 82475 2.3 169.1 1669 -4.5 2.6 -137.75169720813 3843.3894012142
922	23369982 25510 82476 343140 169.2 240.9 718 -3.867344096413 2.6 0.06981541523625 840.22283911988
922	47164435 19359 343141 799435 241 297.2 563 -3.8888888888889 2.6 26.608500591068 1276.5482105818
922	70882350 16972 799436 1393952 297.3 345 478 -3.263526818184 2.5946214861469 -8.939075369768 604.14948176471
922	95419903 16374 1393955 2050478 345.1 387.9 429 -1.5144560238759 2.471917808064e-14 -17.741287460986 13.108710195738
922	119843134 14395 2050479 2391179 388 426.9 390 -2.8400029258218e-14 2.5699451716384 178.19764804133 329.16295045864
922	144166269 11111 2391180 2890367 427 462.6 357 -4.5 2.5949074601755 -109.04702836435 1382.7958210265
922	168480188 12239 2890368 3569740 462.7 496.2 336 -2.9857600983278 2.4637122884626 -27.625752955315 242.3017213804
922	193030731 10740 3569741 4119273 496.3 528.1 319 -3.4235755831726 2.6 221.22458825937 964.82954760968
922	217497469 10608 4119274 4695393 528.2 558.6 305 -4.2672581989314 2.540103653865 -14.720027374337 739.769161519
922	241827160 10560 4695394 5324214 558.7 587.7 291 -4.5 2.5237206915161 -248.02942746552 803.31696403811
922	267462908 4717 5324215 5564586 587.8 599.9 122 -1.3373252924779e-08 -2.0193527721745e-14 -1.4117831586777e-07 1.0118932976891e-15
vector 923  Floatingscenario.node[2].mobility  co2emission  ETV
923	1229300 44667 24 82475 2.3 169.1 1669 0.32987988944856 15.985684277187 4134.1711925206 20304.200137761
923	23395492 20368 82476 343140 169.2 240.9 718 0.973 9.4691147046224 1165.5503961302 3566.213309382
923	47183794 16673 343141 799435 241 297.2 563 0.973 8.6756040846344 1031.7722480323 3136.3342366839
923	70899322 14535 799436 1393952 297.3 345 478 0.973 9.6243751718136 836.62749621615 2769.7803454649
923	95436277 12675 1393955 2050478 345.1 387.9 429 0.973 1.1127341920294 471.84392600895 519.52328119753
923	119857529 10241 2050479 2391179 388 426.9 390 1.11 12.941588796084 873.98731584168 4329.128681021
923	144177380 10744 2391180 2890367 427 462.6 357 0.973 14.247942803154 1224.8004912734 7315.5651107231
923	168492427 10572 2890368 3569740 462.7 496.2 336 0.973 5.8291194224101 430.78948630995 707.04803149988
923	193041471 9824 3569741 4119273 496.3 528.1 319 0.973 18.895389624281 1518.9930759476 13654.613774605
923	217508077 9438 4119274 4695393 528.2 558.6 305 -0.77465698272348 20.417146165137 1764.7660944079 18508.400713424
923	241837720 8583 4695394 5324214 558.7 587.7 291 0.973 17.40875957544 363.10648635275 1131.2627261511
923	267459096 3812 5324215 5564586 587.8 599.9 122 1.11 1.1100000006165 135.42000000647 150.31620001437
vector 255  Floatingscenario.manager.anchorZone[85]  copies  ETV
255	506359 31 29 35281 2.8 122.1 2 0 1 1 1
vector 256  Floatingscenario.manager.anchorZone[85]  infect  ETV
256	506390 13 29 29 2.8 2.8 1 1 1 1 1
vector 928  Floatingscenario.node[3].mobility  posx  ETV
928	1274153 50081 32 82475 3.1 169.1 1661 834.2036495538 1877.9156143759 2463060.0349487 3899422209.3854
928	23415860 23391 82476 343140 169.2 240.9 718 1877.9156152462 1930.3297391715 1358806.775651 2571794908.0573
928	47200467 18397 343141 799435 241 297.2 563 1884.9673222247 1918.220071562 1072561.1533746 2043360809.1321
928	70913857 16025 799436 1393952 297.3 345 478 1883.5917692128 2007.230148949 923273.11591928 1784753421.8394
928	95448952 14480 1393955 2050478 345.1 387.9 429 2007.2301511819 2007.2301721331 861101.74362794 1728429400.6506
928	119867837 13171 2050479 2391179 388 426.9 390 2007.2301721331 2153.2128076038 788923.87357884 1596344827.9024
928	144188124 12041 2391180 2890367 427 462.6 357 2155.3893056729 2547.2632422335 876820.72344887 2158954422.2553
928	168502999 11332 2890368 3569740 462.7 496.2 336 2547.2632423526 2585.8235178998 857466.76375366 2188270930.6252
928	193051295 10747 3569741 4119273 496.3 528.1 319 2586.3053925064 2833.800279557 864796.22007641 2346889800.4222
vector 929  Floatingscenario.node[3].mobility  posy  ETV
929	1324234 50037 32 82475 3.1 169.1 1661 775.49147565316 1170.5205013896 1710518.9388728 1773824588.9422
929	23439251 23387 82476 343140 169.2 240.9 718 918.0685713412 1010.9417907853 710951.67753301 704898777.6341
929	47218864 18406 343141 799435 241 297.2 563 707.5605568108 918.06856582633 469778.58351526 393753092.81037
929	70929882 16021 799436 1393952 297.3 345 478 673.81358285358 707.53720655252 330261.03349838 228270430.65827
929	95463432 14482 1393955 2050478 345.1 387.9 429 673.81357905788 673.81358248801 289066.02545138 194776613.21739
929	119881008 13166 2050479 2391179 388 426.9 390 649.49319684218 673.81357905788 261773.09159316 175717847.6287
929	144200165 12022 2391180 2890367 427 462.6 357 594.1771076897 649.51602415642 226492.61268136 143808175.44073
929	168514331 11333 2890368 3569740 462.7 496.2 336 649.51602425994 682.17910893835 219592.77101509 143535684.87033
929	193062042 10745 3569741 4119273 496.3 528.1 319 682.94078170373 1101.7180559586 264221.05129788 223886772.26853
929	217274197 7248 4119274 4583081 528.2 549.6 215 1103.9016141598 1365.9439864773 268686.63353915 336608312.61753
vector 168  Floatingscenario.manager.anchorZone[56]  copies  ETV
168	505259 31 32 36955 3.1 123.1 2 0 1 1 1
vector 169  Floatingscenario.manager.anchorZone[56]  infect  ETV
169	505290 13 32 32 3.1 3.1 1 1 1 1 1
vector 171  Floatingscenario.manager.anchorZone[57]  copies  ETV
171	505321 31 32 36955 3.1 123.1 2 0 1 1 1
vector 172  Floatingscenario.manager.anchorZone[57]  infect  ETV
172	505352 13 32 32 3.1 3.1 1 1 1 1 1
vector 207  Floatingscenario.manager.anchorZone[69]  copies  ETV
207	505753 31 32 36955 3.1 123.1 2 0 1 1 1
vector 208  Floatingscenario.manager.anchorZone[69]  infect  ETV
208	505784 13 32 32 3.1 3.1 1 1 1 1 1
vector 930  Floatingscenario.node[3].mobility  speed  ETV
930	1374271 52240 33 82475 3.2 169.1 1660 5.8541775500576e-14 22.219471060962 14669.887819801 269193.12885479
930	23462638 25219 82476 343140 169.2 240.9 718 5.8547462085139e-14 15.996550779315 1373.0295897857 12352.846667292
930	47237270 19172 343141 799435 241 297.2 563 2.3667955994148e-07 17.016086146127 2131.5651931123 19768.435759495
930	70945903 16559 799436 1393952 297.3 345 478 2.2627907491119e-05 15.273241114861 1351.0451053987 13067.380570421
930	95477914 16161 1393955 2050478 345.1 387.9 429 5.8545087674332e-14 2.0815890030281e-05 0.0002123131806571 2.2896237927028e-09
930	119894174 14207 2050479 2391179 388 426.9 390 5.8543351573867e-14 22.903566235336 1501.8904169139 24060.478466422
930	144212187 12431 2391180 2890367 427 462.6 357 1.5776753008059e-06 26.537168482458 4165.1795682015 94267.707705283
930	168525664 12193 2890368 3569740 462.7 496.2 336 5.8607599483512e-14 9.6755053400847 520.51780150563 3052.0360167297
930	193072787 10754 3569741 4119273 496.3 528.1 319 3.3327248099091 27.040970496751 5184.0752220909 102177.37938246
930	217266952 7245 4119274 4583081 528.2 549.6 215 0.9209575982994 22.215800310031 2679.3901096696 44089.017386058
vector 931  Floatingscenario.node[3].mobility  acceleration  ETV
931	1426511 53605 34 82475 3.3 169.1 1659 -4.5 2.6 -205.93965110708 2906.9007991322
931	23487857 25604 82476 343140 169.2 240.9 718 -3.7998206841169 2.6 0.00046968974269113 883.24992489524
931	47256442 19082 343141 799435 241 297.2 563 -4.5 2.6 2.3637088975751 1950.4985160106
931	70962462 16611 799436 1393952 297.3 345 478 -3.8888888888889 2.5981500263181 -2.3640405373998 2832.7317032134
931	95494075 16482 1393955 2050478 345.1 387.9 429 -2.3989815660828e-05 2.8547519683934e-14 -0.00022627907430667 2.7039812211105e-09
931	119908381 14321 2050479 2391179 388 426.9 390 -4.5 2.5923241295386 220.66826100758 489.82391478422
931	144224618 12701 2391180 2890367 427 462.6 357 -4.5 2.548883751221 -220.66824523083 953.61365088751
931	168537857 12322 2890368 3569740 462.7 496.2 336 -3.1801554462005 2.6 92.115069948114 336.96520830303
931	193083541 10910 3569741 4119273 496.3 528.1 319 -4.5 2.6 129.29430002593 847.52540272893
931	217259678 7274 4119274 4583081 528.2 549.6 215 -4.5 2.6 -18.586889863747 1074.7166471541
vector 932  Floatingscenario.node[3].mobility  co2emission  ETV
932	1480116 43339 34 82475 3.3 169.1 1659 0.42413724995848 16.475335235625 4277.2734762351 24280.788455684
932	23513461 20041 82476 343140 169.2 240.9 718 0.973 11.790483992253 1187.109434091 3979.0428398173
932	47275524 16843 343141 799435 241 297.2 563 0.973 12.18548403491 1303.2673855707 6300.7677965302
932	70979073 14256 799436 1393952 297.3 345 478 0.973 11.116253985541 921.45675919683 3645.1000573733
932	95510557 11592 1393955 2050478 345.1 387.9 429 1.11 1.1100010040676 476.19001024141 528.57092273592
932	119922702 10236 2050479 2391179 388 426.9 390 0.973 16.575259233133 1182.4016121959 8706.9075412303
932	144237319 10590 2391180 2890367 427 462.6 357 0.22100080512222 19.149990754313 1119.2906459013 10299.987125694
932	168550179 10295 2890368 3569740 462.7 496.2 336 0.973 7.0982467753282 544.17754828422 1362.8001308952
932	193094451 9900 3569741 4119273 496.3 528.1 319 0.37125931207399 18.957546927811 1658.7818932549 15498.738193631
932	217253251 6427 4119274 4583081 528.2 549.6 215 0.73504844558256 14.289356592308 897.16888972064 6514.5022476281
vector 937  Floatingscenario.node[4].mobility  posx  ETV
937	1523455 49780 42 82475 4.1 169.1 1651 1410.8168097082 2690.0171379704 3402039.572194 7100883052.2542
vector 938  Floatingscenario.node[4].mobility  posy  ETV
938	1573235 49770 42 82475 4.1 169.1 1651 999.40115421148 1386.5942173348 1986735.5197622 2430412156.1458
938	22899310 20574 82476 304404 169.2 232.4 633 893.8003054963 1094.9240434589 591132.98309458 554382071.18392
vector 525  Floatingscenario.manager.anchorZone[175]  copies  ETV
525	511377 31 42 36966 4.1 124.1 2 0 1 1 1
vector 526  Floatingscenario.manager.anchorZone[175]  infect  ETV
526	511408 13 42 42 4.1 4.1 1 1 1 1 1
vector 528  Floatingscenario.manager.anchorZone[176]  copies  ETV
528	511439 31 42 36966 4.1 124.1 2 0 1 1 1
vector 529  Floatingscenario.manager.anchorZone[176]  infect  ETV
529	511470 13 42 42 4.1 4.1 1 1 1 1 1
vector 564  Floatingscenario.manager.anchorZone[188]  copies  ETV
564	512063 31 42 36966 4.1 124.1 2 0 1 1 1
vector 565  Floatingscenario.manager.anchorZone[188]  infect  ETV
565	512094 13 42 42 4.1 4.1 1 1 1 1 1
vector 567  Floatingscenario.manager.anchorZone[189]  copies  ETV
567	512125 31 42 36966 4.1 124.1 2 0 1 1 1
vector 568  Floatingscenario.manager.anchorZone[189]  infect  ETV
568	512156 13 42 42 4.1 4.1 1 1 1 1 1
vector 939  Floatingscenario.node[4].mobility  speed  ETV
939	1623005 51456 43 82475 4.2 169.1 1650 1.1256911220885e-13 22.219992804453 16383.259566816 287926.12466411
939	22878019 21291 82476 304404 169.2 232.4 633 1.6949532757803e-08 19.838681242808 4043.948839496 50487.927952676
vector 940  Floatingscenario.node[4].mobility  acceleration  ETV
940	1674461 52427 44 82475 4.3 169.1 1649 -4.5 2.6 -21.524949037155 4046.2322083576
940	22856170 21849 82476 304404 169.2 232.4 633 -4.5 2.6 -88.375344959543 942.29108015243
vector 941  Floatingscenario.node[4].mobility  co2emission  ETV
941	1726888 44884 44 82475 4.3 169.1 1649 0.27528195559546 15.553650645197 4846.4398913504 27514.593672653
941	22837722 18448 82476 304404 169.2 232.4 633 0.88994844238573 8.3284572751566 1103.4543342238 2993.6715361811
vector 946  Floatingscenario.node[5].mobility  posx  ETV
946	1771772 49543 52 82475 5.1 169.1 1641 3210.640382031 4012.57669663 6356011.8589099 24681922386.425
946	23533502 23356 82476 343140 169.2 240.9 718 2631.9943223834 3208.7586480373 1995780.1819767 5564657463.8469
946	47292367 18401 343141 799435 241 297.2 563 2351.4736046959 2631.6161065328 1390208.6629443 3437778013.6319
946	70993329 16028 799436 1393952 297.3 345 478 1926.0804936688 2350.9933285589 985026.15619004 2040069015.328
946	95522149 14468 1393955 2050478 345.1 387.9 429 1866.122229734 1926.0804924176 823091.38497104 1579303365.2416
946	119932938 13133 2050479 2391179 388 426.9 390 1866.5256623596 1900.1366712341 733962.96897635 1381305893.2711
946	144247977 12044 2391180 2890367 427 462.6 357 1900.3075994245 1903.8437621098 679613.06772264 1293764596.4275
946	168560474 11349 2890368 3569740 462.7 496.2 336 1903.8437621098 1905.6767883444 639714.83364095 1217961536.728
946	193104351 10739 3569741 4119273 496.3 528.1 319 1902.8790403455 1916.506785431 610705.0242386 1169160307.7287
946	217517515 10304 4119274 4695393 528.2 558.6 305 1896.2793415996 1917.9450122404 584328.42012807 1119477354.6488
946	241846303 9809 4695394 5324214 558.7 587.7 291 1478.636496602 1895.1975299124 476769.4568275 787070622.5144
vector 947  Floatingscenario.node[5].mobility  posy  ETV
947	1821315 49530 52 82475 5.1 169.1 1641 1184.3235877918 1474.0515935022 2268196.4157788 3141580506.2954
947	23556858 23367 82476 343140 169.2 240.9 718 706.73265289199 1209.9281885464 600135.35181537 514568751.8876
947	47310768 18403 343141 799435 241 297.2 563 587.55107627103 706.3998354672 351339.14568597 219945477.14705
947	71009357 16050 799436 1393952 297.3 345 478 604.92874969643 680.40599080025 313268.48888317 205622138.00118
947	95536617 14467 1393955 2050478 345.1 387.9 429 677.23335780857 696.57695551368 292042.45690094 198810262.75803
947	119946071 13140 2050479 2391179 388 426.9 390 698.00591203683 870.14178982361 299961.51180607 231132804.38767
947	144260021 12038 2391180 2890367 427 462.6 357 871.22347056478 893.60128353068 318641.30684344 284408539.15065
947	168571823 11352 2890368 3569740 462.7 496.2 336 893.60128353068 904.86530090853 300394.30738785 268562626.75952
947	193115090 10744 3569741 4119273 496.3 528.1 319 905.42115711194 989.42439532671 311607.479618 304564431.17796
947	217527819 10254 4119274 4695393 528.2 558.6 305 989.42439532703 1004.5481386508 302254.15836238 299537739.05065
947	241856112 9804 4695394 5324214 558.7 587.7 291 978.43567272426 1070.8942785801 300073.9462279 309611612.47716
947	265837311 3170 5324215 5470188 587.8 597.1 94 874.87748532566 978.05510529194 87786.88778746 82079052.711129
vector 795  Floatingscenario.manager.anchorZone[265]  copies  ETV
795	515083 31 52 36977 5.1 125.1 2 0 1 1 1
vector 796  Floatingscenario.manager.anchorZone[265]  infect  ETV
796	515114 13 52 52 5.1 5.1 1 1 1 1 1
vector 798  Floatingscenario.manager.anchorZone[266]  copies  ETV
798	515145 31 52 36977 5.1 125.1 2 0 1 1 1
vector 799  Floatingscenario.manager.anchorZone[266]  infect  ETV
799	515176 13 52 52 5.1 5.1 1 1 1 1 1
vector 837  Floatingscenario.manager.anchorZone[279]  copies  ETV
837	515503 31 52 36977 5.1 125.1 2 0 1 1 1
vector 838  Floatingscenario.manager.anchorZone[279]  infect  ETV
838	515534 13 52 52 5.1 5.1 1 1 1 1 1
vector 750  Floatingscenario.manager.anchorZone[250]  copies  ETV
750	514453 31 52 25893 5.1 120.1 2 0 1 1 1
vector 751  Floatingscenario.manager.anchorZone[250]  infect  ETV
751	514484 13 52 52 5.1 5.1 1 1 1 1 1